<LesHouchesEvents version="3.0">
<!--
file generated with POWHEG-BOX-V2
Input file powheg.input contained:
numevts 1000    ! number of events to be generated

! Production parameters for ttH production
hmass 125.d0      ! mass of the HIggs boson [GeV]
hwidth 0.00498d0  ! width of the Higgs boson [GeV]

hdecaymode -1    ! -1 no decay
                ! 0 all decay channels open
                ! 1-6 d dbar, u ubar,..., t tbar
                ! 7-9 e+ e-, mu+ mu-, tau+ tau-
                ! 10  W+W-
                ! 11  ZZ
                ! 12  gamma gamma

#pythiatune 320	! PYTHIA tune


ih1   1           ! hadron 1 (1 for protons, -1 for antiprotons)
ih2   1           ! hadron 2 (1 for protons, -1 for antiprotons)
ebeam1 6500d0     ! energy of beam 1
ebeam2 6500d0     ! energy of beam 2

! To be set only if using 'native' pdfs
!ndns1 131         ! pdf set for hadron 1 (mlm numbering)
!ndns2 131         ! pdf set for hadron 2 (mlm numbering)
! To be set only if using LHA pdfs
! 10050 cteq6m
! 10042 cteq6l with LO alphas (corr. to vbfnlo LO set)
! 10041 cteq6l with NLO alphas
! 21000 MSTW2008 LO
! 21100 MSTW2008 NLO
! 23300 MSTW2008 NLO, NF=4
! 11082 CT10 Nf4

lhans1  23300      ! pdf set for hadron 1 (LHA numbering)
lhans2  23300      ! pdf set for hadron 2 (LHA numbering)

#bornktmin 1d0    ! Generation cut; minimum kt in underlying born
#bornsuppfact 1d0 ! (default 0d0) switch for Born suppression factor. If < 0 suppfact = 1
delta_mbbmin 0d0 ! generation cut on mbb (no gencut used, if set to 0)

use-old-grid    1 ! if 1 use old grid if file pwggrids.dat is present (<> 1 regenerate)
use-old-ubound  1 ! if 1 use norm of upper bounding function stored in pwgubound.dat, if present; <>

ncall1  500000  ! number of calls for initializing the integration grid
itmx1    2     ! number of iterations for initializing the integration grid
ncall2  50000  ! number of calls for computing the integral and finding upper bound
itmx2     1     ! number of iterations for computing the integral and finding upper bound
foldcsi   1    ! number of folds on csi integration
foldy     1    ! number of folds on  y  integration
foldphi   1    ! number of folds on phi integration
nubound 10000  ! number of bbarra calls to setup norm of upper bounding function
icsimax  1     ! <= 100, number of csi subdivision when computing the upper bounds
iymax    1     ! <= 100, number of y subdivision when computing the upper bounds
xupbound 2d0   ! increase upper bound for radiation generation

#runningscales 2	   ! default 0 (no running scales); 1,2: use running scales
renscfact 1d0   ! (default 1d0) ren scale factor: muren  = muref * renscfact
facscfact 1d0   ! (default 1d0) fac scale factor: mufact = muref * facscfact
testplots  1       ! (default 0, do not) do NLO and PWHG distributions

#bornonly   1      ! (default 0) if 1 do Born only
#fakevirt   1      ! (default 0) if 1 use Born for virtuals

iseed    2

manyseeds  1       ! Used to perform multiple runs with different random
                   ! seeds in the same directory.
                   ! If set to 1, the program asks for an integer j;
                   ! The file pwgseeds.dat at line j is read, and the
                   ! integer at line j is used to initialize the random
                   ! sequence for the generation of the event.
                   ! The event file is called pwgevents-'j'.lhe

#storeinfo_rwgt 1   ! store info for reweighting events
#compute_rwgt 1   ! store info for reweighting events
#xgriditeration 1   ! identifier for grid generation
#parallelstage  4   ! identifier for parallel running stages


toploop 1	! 1 include top loop effects; 0 disregard top loop effects
msbar  1	! 1 MSbar renormalization; 0 On-Shell renormalization
parallelstage 4
End of powheg.input content
PDF package: lha
 Random number generator initialized with:           12             0             0
-->
<init>
     2212     2212  6.50000E+03  6.50000E+03     -1     -1     -1     -1     -4      1
  3.37328E-01  1.60874E-01  1.00000E+00   9999
</init>
<event>
      6   9999  3.45752E-01  9.37519E+00 -1.00000E+00  1.90194E-01
      21    -1     0     0   511   502  0.000000000E+00  0.000000000E+00  9.007556977E+00  9.007556977E+00  0.000000000E+00  0.00000E+00  9.000E+00
      21    -1     0     0   502   503  0.000000000E+00  0.000000000E+00 -7.911133321E+02  7.911133321E+02  0.000000000E+00  0.00000E+00  9.000E+00
      25     1     1     2     0     0  9.550058036E+00 -7.624654884E+00 -5.479319623E+02  5.621437760E+02  1.250074024E+02  0.00000E+00  9.000E+00
       5     1     1     2   501     0 -1.741085549E+00 -5.332054296E-01 -5.863333979E+00  7.762530017E+00  4.750000000E+00  0.00000E+00  9.000E+00
      -5     1     1     2     0   503 -4.727600399E+00  1.701219940E+01 -1.849791334E+02  1.858806268E+02  4.750000000E+00  0.00000E+00  9.000E+00
      21     1     1     2   511   501 -3.081372088E+00 -8.854339086E+00 -4.333134541E+01  4.433395617E+01  6.743495762E-07  0.00000E+00  9.000E+00
#rwgt            1           9  0.75909899933894220               12          41           0
</event>
<event>
      6   9999  3.45752E-01  1.78896E+01 -1.00000E+00  1.63997E-01
      21    -1     0     0   501   512  0.000000000E+00  0.000000000E+00  1.057456297E+02  1.057456297E+02  0.000000000E+00  0.00000E+00  9.000E+00
      21    -1     0     0   502   503  0.000000000E+00  0.000000000E+00 -1.587100504E+03  1.587100504E+03  0.000000000E+00  0.00000E+00  9.000E+00
      25     1     1     2     0     0  4.225122002E+01 -3.992675783E+00 -3.593498739E+02  3.828288859E+02  1.249980679E+02  0.00000E+00  9.000E+00
       5     1     1     2   501     0 -1.615735430E+00 -1.067116440E+00  7.300206593E+01  7.318205702E+01  4.750000000E+00  0.00000E+00  9.000E+00
      -5     1     1     2     0   503 -2.443315735E+01  1.264419793E+01 -1.211905093E+03  1.212226617E+03  4.750000000E+00  0.00000E+00  9.000E+00
      21     1     1     2   502   512 -1.620232724E+01 -7.584405710E+00  1.689802614E+01  2.460857382E+01  2.384185791E-07  0.00000E+00  9.000E+00
#rwgt            1           9   2.0917384609992769E-002          12        2319           0
</event>
<event>
      6   9999  3.45752E-01  6.35099E+00 -1.00000E+00  2.10676E-01
      21    -1     0     0   501   511  0.000000000E+00  0.000000000E+00  1.673329860E+01  1.673329860E+01  0.000000000E+00  0.00000E+00  9.000E+00
      21    -1     0     0   502   503  0.000000000E+00  0.000000000E+00 -7.361146075E+02  7.361146075E+02  0.000000000E+00  0.00000E+00  9.000E+00
      25     1     1     2     0     0 -4.168900683E+00  7.696919958E-01 -5.588388070E+02  5.726638997E+02  1.250006307E+02  0.00000E+00  9.000E+00
       5     1     1     2   501     0  6.997904361E-02 -5.982284497E-01 -4.896864642E+00  6.848690216E+00  4.750000000E+00  0.00000E+00  9.000E+00
      -5     1     1     2     0   503  6.811613487E+00 -5.913970504E+00 -1.631704322E+02  1.634886099E+02  4.750000000E+00  0.00000E+00  9.000E+00
      21     1     1     2   502   511 -2.712691848E+00  5.742506958E+00  7.524794993E+00  9.846706197E+00  8.041106202E-07  0.00000E+00  9.000E+00
#rwgt            1           9   7.3318872320664969E-004          12        5456           0
</event>
<event>
      6   9999  3.45752E-01  2.42571E+01 -1.00000E+00  1.54066E-01
      21    -1     0     0   501   512  0.000000000E+00  0.000000000E+00  6.383904243E+02  6.383904243E+02  0.000000000E+00  0.00000E+00  9.000E+00
      21    -1     0     0   502   503  0.000000000E+00  0.000000000E+00 -5.247135714E+01  5.247135714E+01  0.000000000E+00  0.00000E+00  9.000E+00
      25     1     1     2     0     0  5.759984269E+01 -1.540830820E+01  2.352358946E+02  2.729742729E+02  1.249954788E+02  0.00000E+00  9.000E+00
       5     1     1     2   501     0  2.049783621E+00 -3.076201561E-01  2.182503331E+02  2.183118564E+02  4.750000000E+00  0.00000E+00  9.000E+00
      -5     1     1     2     0   503 -3.630912121E+01  2.232104387E+01 -1.850044262E+01  4.670556883E+01  4.750000000E+00  0.00000E+00  9.000E+00
      21     1     1     2   502   512 -2.334050509E+01 -6.605115507E+00  1.509332821E+02  1.528700833E+02  2.697398305E-06  0.00000E+00  9.000E+00
#rwgt            1           9   6.5824528044159516               12        9067           0
</event>
<event>
      6   9999  3.45752E-01  4.41761E+00 -1.00000E+00  2.39249E-01
      21    -1     0     0   501   502  0.000000000E+00  0.000000000E+00  3.174688928E+03  3.174688928E+03  0.000000000E+00  0.00000E+00  9.000E+00
      21    -1     0     0   511   503  0.000000000E+00  0.000000000E+00 -2.957007736E+01  2.957007736E+01  0.000000000E+00  0.00000E+00  9.000E+00
      25     1     1     2     0     0  1.888135578E+00  4.147191015E+00  1.753667435E+03  1.758123089E+03  1.250062373E+02  0.00000E+00  9.000E+00
       5     1     1     2   501     0  6.044793403E-01  1.664522264E+00  1.167570728E+03  1.167581733E+03  4.750000000E+00  0.00000E+00  9.000E+00
      -5     1     1     2     0   503 -4.572469337E+00 -1.914339927E+00  2.509917168E+02  2.510855961E+02  4.750000000E+00  0.00000E+00  9.000E+00
      21     1     1     2   511   502  2.079854419E+00 -3.897373352E+00 -2.711102974E+01  2.746858655E+01  1.752011592E-06  0.00000E+00  9.000E+00
#rwgt            1           9   8.7423278133445478E-004          12       10856           0
</event>
<event>
      6   9999  3.45752E-01  8.38672E+00 -1.00000E+00  1.95619E-01
      21    -1     0     0   501   512  0.000000000E+00  0.000000000E+00  1.646813617E+01  1.646813617E+01  0.000000000E+00  0.00000E+00  9.000E+00
      21    -1     0     0   502   503  0.000000000E+00  0.000000000E+00 -8.832307577E+02  8.832307577E+02  0.000000000E+00  0.00000E+00  9.000E+00
      25     1     1     2     0     0  8.475752714E+00 -8.512389871E+00 -8.068971857E+02  8.166102819E+02  1.249999403E+02  0.00000E+00  9.000E+00
       5     1     1     2   501     0  1.285514261E-01 -1.712900722E+00  8.040446883E+00  9.495358889E+00  4.750000000E+00  0.00000E+00  9.000E+00
      -5     1     1     2     0   503 -3.608446553E+00  3.488932058E+00 -6.394661744E+01  6.431893901E+01  4.750000000E+00  0.00000E+00  9.000E+00
      21     1     1     2   502   512 -4.995857587E+00  6.736358534E+00 -3.959265219E+00  9.274314012E+00  2.827296549E-07  0.00000E+00  9.000E+00
#rwgt            1           9   8.5306195510657361E-003          12       14778           0
</event>
<event>
      6   9999  3.45752E-01  1.38870E+01 -1.00000E+00  1.73325E-01
      21    -1     0     0   501   502  0.000000000E+00  0.000000000E+00  4.139881534E+01  4.139881534E+01  0.000000000E+00  0.00000E+00  9.000E+00
      21    -1     0     0   511   503  0.000000000E+00  0.000000000E+00 -3.228388513E+03  3.228388513E+03  0.000000000E+00  0.00000E+00  9.000E+00
      25     1     1     2     0     0 -6.410687516E+00  1.549784494E+01 -1.080382644E+03  1.087719233E+03  1.250007752E+02  0.00000E+00  9.000E+00
       5     1     1     2   501     0 -5.142461229E+00 -6.879432806E-01  3.716137911E+01  3.782127405E+01  4.750000000E+00  0.00000E+00  9.000E+00
      -5     1     1     2     0   503  4.913827033E+00 -2.612870806E+00 -6.173522318E+01  6.216729905E+01  4.750000000E+00  0.00000E+00  9.000E+00
      21     1     1     2   511   502  6.639321711E+00 -1.219703085E+01 -2.082033210E+03  2.082079522E+03  4.315837288E-05  0.00000E+00  9.000E+00
#rwgt            1           9   1.9598502280364556E-005          12       17657           0
</event>
<event>
      6   9999 -3.45752E-01  4.76143E+00 -1.00000E+00  2.33161E-01
      21    -1     0     0   501   502  0.000000000E+00  0.000000000E+00  8.321732954E+00  8.321732954E+00  0.000000000E+00  0.00000E+00  9.000E+00
      21    -1     0     0   512   503  0.000000000E+00  0.000000000E+00 -1.323526513E+03  1.323526513E+03  0.000000000E+00  0.00000E+00  9.000E+00
      25     1     1     2     0     0  1.472466598E+01  1.153441212E+00 -5.750710717E+02  5.886807573E+02  1.249805996E+02  0.00000E+00  9.000E+00
       5     1     1     2   501     0 -2.858866483E-02 -2.123238476E+00 -5.939869032E+00  7.896423435E+00  4.750000000E+00  0.00000E+00  9.000E+00
      -5     1     1     2     0   503 -1.694106617E+01 -3.229156716E+00 -1.507237838E+02  1.517815822E+02  4.750000000E+00  0.00000E+00  9.000E+00
      21     1     1     2   512   502  2.244988854E+00  4.198953980E+00 -5.834700560E+02  5.834894836E+02  7.629394531E-06  0.00000E+00  9.000E+00
#rwgt            1           9  -9.5293126443364920E-003          12       20410           0
</event>
<event>
      6   9999  3.45752E-01  3.25412E+00 -1.00000E+00  2.67991E-01
      21    -1     0     0   501   502  0.000000000E+00  0.000000000E+00  1.950761886E+01  1.950761886E+01  0.000000000E+00  0.00000E+00  9.000E+00
      21    -1     0     0   511   503  0.000000000E+00  0.000000000E+00 -1.093037566E+03  1.093037566E+03  0.000000000E+00  0.00000E+00  9.000E+00
      25     1     1     2     0     0 -4.282342437E+00 -4.348889363E+00 -9.527639023E+02  9.609481365E+02  1.250000649E+02  0.00000E+00  9.000E+00
       5     1     1     2   501     0  1.969726864E+00  3.106853229E+00  1.420745980E+01  1.542552349E+01  4.750000000E+00  0.00000E+00  9.000E+00
      -5     1     1     2     0   503  5.472403471E+00  4.642148635E-01 -2.232802237E+01  2.347904977E+01  4.750000000E+00  0.00000E+00  9.000E+00
      21     1     1     2   511   502 -3.159787898E+00  7.778212708E-01 -1.126454826E+02  1.126924754E+02  1.348699152E-06  0.00000E+00  9.000E+00
#rwgt            1           9   3.7943074719430674E-006          12       24189           0
</event>
<event>
      6   9999  3.45752E-01  8.87006E+00 -1.00000E+00  1.92851E-01
      21    -1     0     0   502   503  0.000000000E+00  0.000000000E+00  1.762915635E+01  1.762915635E+01  0.000000000E+00  0.00000E+00  9.000E+00
      21    -1     0     0   501   512  0.000000000E+00  0.000000000E+00 -9.924187224E+02  9.924187224E+02  0.000000000E+00  0.00000E+00  9.000E+00
      25     1     1     2     0     0 -4.856198158E+00 -8.604386509E+00 -2.216970339E+02  2.546997148E+02  1.249990070E+02  0.00000E+00  9.000E+00
       5     1     1     2   501     0  6.185030137E-01  1.999330567E+00 -6.946519463E+02  6.946713388E+02  4.750000000E+00  0.00000E+00  9.000E+00
      -5     1     1     2     0   503 -1.867095103E+00  1.700364092E-01 -8.206332341E+00  9.665471897E+00  4.750000000E+00  0.00000E+00  9.000E+00
      21     1     1     2   502   512  6.104790247E+00  6.435019533E+00 -5.023425347E+01  5.101135327E+01  0.000000000E+00  0.00000E+00  9.000E+00
#rwgt            1           9   5.8543298575273626E-004          12       30150           0
</event>
<event>
      6   9999  3.45752E-01  3.13397E+00 -1.00000E+00  2.72042E-01
      21    -1     0     0   501   502  0.000000000E+00  0.000000000E+00  6.769690785E+01  6.769690785E+01  0.000000000E+00  0.00000E+00  9.000E+00
      21    -1     0     0   511   503  0.000000000E+00  0.000000000E+00 -9.030369390E+02  9.030369390E+02  0.000000000E+00  0.00000E+00  9.000E+00
      25     1     1     2     0     0 -8.508472033E+00  3.344011155E+00 -4.588857931E+02  4.756942148E+02  1.250009532E+02  0.00000E+00  9.000E+00
       5     1     1     2   501     0  4.931760630E+00 -6.915815624E+00  5.866979957E+01  5.947149443E+01  4.750000000E+00  0.00000E+00  9.000E+00
      -5     1     1     2     0   503  1.341605268E+00  1.374977196E+00 -3.017127540E+01  3.060324862E+01  4.750000000E+00  0.00000E+00  9.000E+00
      21     1     1     2   511   502  2.235106135E+00  2.196827274E+00 -4.049527622E+02  4.049648891E+02  7.629394531E-06  0.00000E+00  9.000E+00
#rwgt            1           9   6.5744465296967039E-004          12       33374           0
</event>
<event>
      6   9999  3.45752E-01  3.92164E+00 -1.00000E+00  2.49642E-01
      21    -1     0     0   501   502  0.000000000E+00  0.000000000E+00  8.493434622E+00  8.493434622E+00  0.000000000E+00  0.00000E+00  9.000E+00
      21    -1     0     0   502   512  0.000000000E+00  0.000000000E+00 -1.430661163E+03  1.430661163E+03  0.000000000E+00  0.00000E+00  9.000E+00
      25     1     1     2     0     0  3.600236340E+00  8.398038937E+00 -5.120370327E+02  5.271526667E+02  1.249980894E+02  0.00000E+00  9.000E+00
       5     1     1     2   501     0 -3.428975043E-01 -3.098584493E-02 -8.161659939E+00  9.449536062E+00  4.750000000E+00  0.00000E+00  9.000E+00
      -5     1     1     2     0   503 -6.422500866E+00 -1.068243596E+01 -1.549535526E+02  1.555266180E+02  4.750000000E+00  0.00000E+00  9.000E+00
      21     1     1     2   503   512  3.165162030E+00  2.315382864E+00 -7.470154831E+02  7.470257769E+02  0.000000000E+00  0.00000E+00  9.000E+00
#rwgt            1           9   1.2743627097489764E-004          12       41135           0
</event>
<event>
      6   9999  3.45752E-01  1.16195E+01 -1.00000E+00  1.80579E-01
      21    -1     0     0   511   502  0.000000000E+00  0.000000000E+00  4.210385469E+02  4.210385469E+02  0.000000000E+00  0.00000E+00  9.000E+00
      21    -1     0     0   502   503  0.000000000E+00  0.000000000E+00 -3.038007756E+02  3.038007756E+02  0.000000000E+00  0.00000E+00  9.000E+00
      25     1     1     2     0     0 -4.952535512E+00  2.187683964E+00 -2.808183254E+02  3.074301311E+02  1.250001601E+02  0.00000E+00  9.000E+00
       5     1     1     2   501     0 -4.285864092E-01  2.245197894E+00  3.212572813E+00  6.173145387E+00  4.750000000E+00  0.00000E+00  9.000E+00
      -5     1     1     2     0   503  1.938566454E+00  6.664909727E+00 -5.931923767E+00  1.029219516E+01  4.750000000E+00  0.00000E+00  9.000E+00
      21     1     1     2   511   501  3.442555467E+00 -1.109779159E+01  4.007754476E+02  4.009438509E+02  0.000000000E+00  0.00000E+00  9.000E+00
#rwgt            1           9   1.9463448552780687E-003          12       45403           0
</event>
<event>
      6   9999 -3.45752E-01  1.74643E+01 -1.00000E+00  1.64838E-01
      21    -1     0     0   512   503  0.000000000E+00  0.000000000E+00  4.337827900E+01  4.337827900E+01  0.000000000E+00  0.00000E+00  9.000E+00
      21    -1     0     0   501   502  0.000000000E+00  0.000000000E+00 -1.237693935E+03  1.237693935E+03  0.000000000E+00  0.00000E+00  9.000E+00
      25     1     1     2     0     0  8.156932772E+01 -1.658463782E+02 -9.090494906E+02  9.360310034E+02  1.249979462E+02  0.00000E+00  9.000E+00
       5     1     1     2   501     0  4.006265559E-01  2.808075516E-02 -1.368282334E+00  4.959434112E+00  4.750000000E+00  0.00000E+00  9.000E+00
      -5     1     1     2     0   503 -7.026705408E+01  1.528550719E+02 -2.680135129E+02  3.164742288E+02  4.750000000E+00  0.00000E+00  9.000E+00
      21     1     1     2   512   502 -1.170290020E+01  1.296322559E+01 -1.588436993E+01  2.360754749E+01  0.000000000E+00  0.00000E+00  9.000E+00
#rwgt            1           9  -4.7928490877186902E-004          12       47301           0
</event>
<event>
      6   9999  3.45752E-01  2.32698E+00 -1.00000E+00  3.09360E-01
      21    -1     0     0   501   502  0.000000000E+00  0.000000000E+00  6.571925426E+00  6.571925426E+00  0.000000000E+00  0.00000E+00  9.000E+00
      21    -1     0     0   502   511  0.000000000E+00  0.000000000E+00 -2.012658238E+03  2.012658238E+03  0.000000000E+00  0.00000E+00  9.000E+00
      25     1     1     2     0     0 -5.465925794E+00  5.800232196E+00 -1.855780273E+03  1.860002663E+03  1.250038607E+02  0.00000E+00  9.000E+00
       5     1     1     2   501     0  6.836759254E-01 -3.146282835E+00  2.340999395E+00  6.197522619E+00  4.750000000E+00  0.00000E+00  9.000E+00
      -5     1     1     2     0   503  6.053381914E+00 -7.048317813E-01 -8.722410106E+01  8.756566979E+01  4.750000000E+00  0.00000E+00  9.000E+00
      21     1     1     2   503   511 -1.271132045E+00 -1.949117580E+00 -6.542293851E+01  6.546430874E+01  9.536743164E-07  0.00000E+00  9.000E+00
#rwgt            1           9   1.2227109275981774E-003          12       49873           0
</event>
<event>
      6   9999 -3.45752E-01  1.42643E+01 -1.00000E+00  1.72286E-01
      21    -1     0     0   501   502  0.000000000E+00  0.000000000E+00  1.462205785E+01  1.462205785E+01  0.000000000E+00  0.00000E+00  9.000E+00
      21    -1     0     0   512   503  0.000000000E+00  0.000000000E+00 -1.043483231E+03  1.043483231E+03  0.000000000E+00  0.00000E+00  9.000E+00
      25     1     1     2     0     0 -1.188585927E+01  1.072826302E+01 -7.597654439E+02  7.701460250E+02  1.250000032E+02  0.00000E+00  9.000E+00
       5     1     1     2   501     0 -2.622924939E-01  1.722573947E+00  8.207993693E+00  9.642080627E+00  4.750000000E+00  0.00000E+00  9.000E+00
      -5     1     1     2     0   503  6.074859425E-01 -4.067257129E+00 -3.271334671E+01  3.331121692E+01  4.750000000E+00  0.00000E+00  9.000E+00
      21     1     1     2   512   502  1.154066583E+01 -8.383579842E+00 -2.445903763E+02  2.450059664E+02  0.000000000E+00  0.00000E+00  9.000E+00
#rwgt            1           9  -1.8310065321485930E-004          12       57552           0
</event>
<event>
      6   9999  3.45752E-01  1.49649E+01 -1.00000E+00  1.70460E-01
      21    -1     0     0   502   503  0.000000000E+00  0.000000000E+00  4.107254634E+01  4.107254634E+01  0.000000000E+00  0.00000E+00  9.000E+00
      21    -1     0     0   511   502  0.000000000E+00  0.000000000E+00 -5.004356068E+02  5.004356068E+02  0.000000000E+00  0.00000E+00  9.000E+00
      25     1     1     2     0     0  5.311292629E+01  7.592169859E+01 -2.545211364E+02  2.983146095E+02  1.250020404E+02  0.00000E+00  9.000E+00
       5     1     1     2   501     0  1.860465094E+00 -1.258084873E+01 -3.067513653E+01  3.354497856E+01  4.750000000E+00  0.00000E+00  9.000E+00
      -5     1     1     2     0   503 -4.372032278E+01 -7.320583639E+01 -8.964328785E+01  1.238105111E+02  4.750000000E+00  0.00000E+00  9.000E+00
      21     1     1     2   511   501 -1.125306861E+01  9.864986529E+00 -8.452349966E+01  8.583805395E+01  9.536743164E-07  0.00000E+00  9.000E+00
#rwgt            1           9   1.1306134406613131               12       60151           0
</event>
<event>
      6   9999  3.45752E-01  1.95532E+01 -1.00000E+00  1.60963E-01
      21    -1     0     0   502   503  0.000000000E+00  0.000000000E+00  1.032475585E+01  1.032475585E+01  0.000000000E+00  0.00000E+00  9.000E+00
      21    -1     0     0   512   502  0.000000000E+00  0.000000000E+00 -3.184397752E+03  3.184397752E+03  0.000000000E+00  0.00000E+00  9.000E+00
      25     1     1     2     0     0 -5.295731187E+00 -9.208898085E+00 -7.533507868E+02  7.637247862E+02  1.250011697E+02  0.00000E+00  9.000E+00
       5     1     1     2   501     0 -6.074886058E-01  2.384086249E-01 -1.318232459E+01  1.402719012E+01  4.750000000E+00  0.00000E+00  9.000E+00
      -5     1     1     2     0   503 -1.147470099E+01  1.793349874E+01 -2.076928888E+01  3.011984396E+01  4.750000000E+00  0.00000E+00  9.000E+00
      21     1     1     2   512   501  1.737792079E+01 -8.963009279E+00 -2.386770596E+03  2.386850688E+03  3.051757812E-05  0.00000E+00  9.000E+00
#rwgt            1           9   2.1070768846504726E-004          12       62122           0
</event>
<event>
      6   9999  3.45752E-01  4.43266E+01 -1.00000E+00  1.37647E-01
      21    -1     0     0   501   502  0.000000000E+00  0.000000000E+00  3.994130600E+01  3.994130600E+01  0.000000000E+00  0.00000E+00  9.000E+00
      21    -1     0     0   511   503  0.000000000E+00  0.000000000E+00 -2.033768126E+03  2.033768126E+03  0.000000000E+00  0.00000E+00  9.000E+00
      25     1     1     2     0     0 -1.637979219E+02  4.629852681E+01 -5.719917660E+02  6.097313927E+02  1.249979123E+02  0.00000E+00  9.000E+00
       5     1     1     2   501     0 -3.578308976E+00  5.447082900E-01  1.524882763E+01  1.637651509E+01  4.750000000E+00  0.00000E+00  9.000E+00
      -5     1     1     2     0   503  1.237840786E+02 -3.880773077E+01 -1.085538201E+03  1.093272284E+03  4.750000000E+00  0.00000E+00  9.000E+00
      21     1     1     2   511   502  4.359215226E+01 -8.035504322E+00 -3.515456808E+02  3.543292406E+02  3.814697266E-06  0.00000E+00  9.000E+00
#rwgt            1           9  0.27872844601539415               12       63560           0
</event>
<event>
      6   9999  3.45752E-01  1.34425E+01 -1.00000E+00  1.74604E-01
      21    -1     0     0   512   503  0.000000000E+00  0.000000000E+00  9.409323829E+01  9.409323829E+01  0.000000000E+00  0.00000E+00  9.000E+00
      21    -1     0     0   501   502  0.000000000E+00  0.000000000E+00 -5.601957573E+02  5.601957573E+02  0.000000000E+00  0.00000E+00  9.000E+00
      25     1     1     2     0     0  6.534978954E+00 -1.344110831E+01 -3.869586536E+02  4.069227269E+02  1.250029468E+02  0.00000E+00  9.000E+00
       5     1     1     2   501     0 -7.510369962E+00  9.790050670E+00 -1.075870735E+02  1.083964558E+02  4.750000000E+00  0.00000E+00  9.000E+00
      -5     1     1     2     0   503 -9.198869191E+00 -5.134413624E+00 -5.410952866E+01  5.532978393E+01  4.750000000E+00  0.00000E+00  9.000E+00
      21     1     1     2   512   502  1.017426020E+01  8.785471268E+00  8.255273683E+01  8.364002889E+01  1.907348633E-06  0.00000E+00  9.000E+00
#rwgt            1           9   82.898130050978864               12       64807           0
</event>
<event>
      6   9999 -3.45752E-01  9.82591E+00 -1.00000E+00  1.88001E-01
      21    -1     0     0   501   502  0.000000000E+00  0.000000000E+00  3.150487604E+02  3.150487604E+02  0.000000000E+00  0.00000E+00  9.000E+00
      21    -1     0     0   502   511  0.000000000E+00  0.000000000E+00 -4.925046423E+01  4.925046423E+01  0.000000000E+00  0.00000E+00  9.000E+00
      25     1     1     2     0     0  1.599166321E+00 -1.174570336E+01  1.333299351E+02  1.831461578E+02  1.250004985E+02  0.00000E+00  9.000E+00
       5     1     1     2   501     0 -3.033495994E-01  2.352358025E+00  1.192245635E+02  1.193427193E+02  4.750000000E+00  0.00000E+00  9.000E+00
      -5     1     1     2     0   503 -9.391440371E+00  1.496195994E+01  3.413289512E+01  3.872565592E+01  4.750000000E+00  0.00000E+00  9.000E+00
      21     1     1     2   503   511  8.095623649E+00 -5.568614606E+00 -2.088909755E+01  2.308469163E+01  3.371747881E-07  0.00000E+00  9.000E+00
#rwgt            1           9  -2.2321871000869389E-004          12       66507           0
</event>
<event>
      6   9999  3.45752E-01  9.28960E+00 -1.00000E+00  1.90629E-01
      21    -1     0     0   501   502  0.000000000E+00  0.000000000E+00  1.067344953E+01  1.067344953E+01  0.000000000E+00  0.00000E+00  9.000E+00
      21    -1     0     0   512   503  0.000000000E+00  0.000000000E+00 -9.535018439E+02  9.535018439E+02  0.000000000E+00  0.00000E+00  9.000E+00
      25     1     1     2     0     0  7.912463523E-01 -2.571113952E+01 -6.605374594E+02  6.727530158E+02  1.250007848E+02  0.00000E+00  9.000E+00
       5     1     1     2   501     0  4.902147946E-01 -8.957364191E-02  2.172014693E+00  5.246759172E+00  4.750000000E+00  0.00000E+00  9.000E+00
      -5     1     1     2     0   503 -1.025785223E+00  1.651463146E+01 -9.940815102E+01  1.008877013E+02  4.750000000E+00  0.00000E+00  9.000E+00
      21     1     1     2   512   502 -2.556759242E-01  9.286081701E+00 -1.850547986E+02  1.852878171E+02  2.697398305E-06  0.00000E+00  9.000E+00
#rwgt            1           9   3.9387784870505914E-004          12       68842           0
</event>
<event>
      6   9999  3.45752E-01  1.17775E+01 -1.00000E+00  1.80007E-01
      21    -1     0     0   501   502  0.000000000E+00  0.000000000E+00  2.069611747E+02  2.069611747E+02  0.000000000E+00  0.00000E+00  9.000E+00
      21    -1     0     0   511   503  0.000000000E+00  0.000000000E+00 -1.785163012E+03  1.785163012E+03  0.000000000E+00  0.00000E+00  9.000E+00
      25     1     1     2     0     0 -3.929678592E+00 -8.519009987E+00  3.447667401E+01  1.300093164E+02  1.250030615E+02  0.00000E+00  9.000E+00
       5     1     1     2   501     0 -3.308414592E+00  5.489137117E-01  1.223786860E+02  1.225167426E+02  4.750000000E+00  0.00000E+00  9.000E+00
      -5     1     1     2     0   503 -9.525588717E-01 -4.929049035E-01 -3.837275978E-01  4.884677115E+00  4.750000000E+00  0.00000E+00  9.000E+00
      21     1     1     2   511   502  8.190652056E+00  8.463001179E+00 -1.734673470E+03  1.734713451E+03  3.051757812E-05  0.00000E+00  9.000E+00
#rwgt            1           9   3.9433082722313981E-002          12       71732           0
</event>
<event>
      6   9999  3.45752E-01  2.42858E+01 -1.00000E+00  1.54030E-01
      21    -1     0     0   501   502  0.000000000E+00  0.000000000E+00  2.391035248E+01  2.391035248E+01  0.000000000E+00  0.00000E+00  9.000E+00
      21    -1     0     0   512   503  0.000000000E+00  0.000000000E+00 -1.490101853E+03  1.490101853E+03  0.000000000E+00  0.00000E+00  9.000E+00
      25     1     1     2     0     0 -3.496557092E+01  7.642532639E+01 -6.841249937E+02  7.005090026E+02  1.249897356E+02  0.00000E+00  9.000E+00
       5     1     1     2   501     0 -1.975141480E+00 -1.198599535E+00  9.764029936E+00  1.110119837E+01  4.750000000E+00  0.00000E+00  9.000E+00
      -5     1     1     2     0   503  2.911255839E+01 -9.821625799E+01 -5.608689072E+02  5.701670527E+02  4.750000000E+00  0.00000E+00  9.000E+00
      21     1     1     2   512   502  7.828154010E+00  2.298953114E+01 -2.309616295E+02  2.322349518E+02  0.000000000E+00  0.00000E+00  9.000E+00
#rwgt            1           9   2.9402362049342656E-002          12       74058           0
</event>
<event>
      6   9999  3.45752E-01  6.23512E+00 -1.00000E+00  2.11759E-01
      21    -1     0     0   501   511  0.000000000E+00  0.000000000E+00  1.322622981E+00  1.322622981E+00  0.000000000E+00  0.00000E+00  9.000E+00
      21    -1     0     0   502   503  0.000000000E+00  0.000000000E+00 -4.751409688E+03  4.751409688E+03  0.000000000E+00  0.00000E+00  9.000E+00
      25     1     1     2     0     0  4.596439133E+00  6.706533040E+00 -3.994099426E+03  3.996063179E+03  1.249984299E+02  0.00000E+00  9.000E+00
       5     1     1     2   501     0  1.285464634E+00 -3.901440065E-01 -2.326811329E+01  2.378596704E+01  4.750000000E+00  0.00000E+00  9.000E+00
      -5     1     1     2     0   503  3.126679499E-01 -5.606444750E+00 -5.648560575E+02  5.649039371E+02  4.750000000E+00  0.00000E+00  9.000E+00
      21     1     1     2   502   511 -6.194571717E+00 -7.099442829E-01 -1.678634685E+02  1.679792273E+02  2.697398305E-06  0.00000E+00  9.000E+00
#rwgt            1           9   5.7155219100580883E-005          12       75740           0
</event>
<event>
      6   9999  3.45752E-01  9.10806E+01 -1.00000E+00  1.22185E-01
      21    -1     0     0   502   503  0.000000000E+00  0.000000000E+00  6.508415864E+01  6.508415864E+01  0.000000000E+00  0.00000E+00  9.000E+00
      21    -1     0     0   512   502  0.000000000E+00  0.000000000E+00 -4.615434643E+02  4.615434643E+02  0.000000000E+00  0.00000E+00  9.000E+00
      25     1     1     2     0     0 -1.243520679E+01 -1.143215341E+01 -9.723213022E+01  1.592604894E+02  1.249979514E+02  0.00000E+00  9.000E+00
       5     1     1     2   501     0 -2.032332501E+00 -2.267791705E+00  1.014289382E+00  5.732760030E+00  4.750000000E+00  0.00000E+00  9.000E+00
      -5     1     1     2     0   503 -4.424658826E+01 -5.592995725E+01 -3.192318181E+01  7.827881403E+01  4.750000000E+00  0.00000E+00  9.000E+00
      21     1     1     2   512   501  5.871412754E+01  6.962990236E+01 -2.683182830E+02  2.833555594E+02  3.814697266E-06  0.00000E+00  9.000E+00
#rwgt            1           9   3.5331630776158481E-002          12       78763           0
</event>
<event>
      6   9999  3.45752E-01  3.11642E+01 -1.00000E+00  1.46776E-01
      21    -1     0     0   501   511  0.000000000E+00  0.000000000E+00  1.712390153E+02  1.712390153E+02  0.000000000E+00  0.00000E+00  9.000E+00
      21    -1     0     0   502   503  0.000000000E+00  0.000000000E+00 -1.762108275E+03  1.762108275E+03  0.000000000E+00  0.00000E+00  9.000E+00
      25     1     1     2     0     0  3.085944725E+02 -1.338840890E+01 -5.305115237E+02  6.264796195E+02  1.249977555E+02  0.00000E+00  9.000E+00
       5     1     1     2   501     0  1.100229745E+01 -1.152958841E+01  6.664997555E+01  6.869325803E+01  4.750000000E+00  0.00000E+00  9.000E+00
      -5     1     1     2     0   503 -3.228997211E+02 -6.070693519E+00 -1.153129509E+03  1.197510464E+03  4.750000000E+00  0.00000E+00  9.000E+00
      21     1     1     2   502   511  3.302951181E+00  3.098869083E+01  2.612179764E+01  4.066394912E+01  1.011524364E-06  0.00000E+00  9.000E+00
#rwgt            1           9   1.5646824185340329E-003          12       79133           0
</event>
<event>
      6   9999  3.45752E-01  1.01037E+01 -1.00000E+00  1.86723E-01
      21    -1     0     0   512   502  0.000000000E+00  0.000000000E+00  3.802786243E+01  3.802786243E+01  0.000000000E+00  0.00000E+00  9.000E+00
      21    -1     0     0   502   503  0.000000000E+00  0.000000000E+00 -4.042193945E+02  4.042193945E+02  0.000000000E+00  0.00000E+00  9.000E+00
      25     1     1     2     0     0 -7.060285585E+00  3.529383393E+00 -3.664303620E+02  3.872438803E+02  1.249972339E+02  0.00000E+00  9.000E+00
       5     1     1     2   501     0 -2.687418198E+00 -1.160391492E+00  1.812274908E+01  1.896220607E+01  4.750000000E+00  0.00000E+00  9.000E+00
      -5     1     1     2     0   503 -1.479892947E-02  2.345914206E-01 -2.384190448E+01  2.431160549E+01  4.750000000E+00  0.00000E+00  9.000E+00
      21     1     1     2   512   501  9.762502713E+00 -2.603583322E+00  5.957985360E+00  1.172956499E+01  2.384185791E-07  0.00000E+00  9.000E+00
#rwgt            1           9   4.8971956661520344E-004          12       82200           0
</event>
<event>
      6   9999  3.45752E-01  1.33891E+01 -1.00000E+00  1.74761E-01
      21    -1     0     0   511   503  0.000000000E+00  0.000000000E+00  1.917574066E+01  1.917574066E+01  0.000000000E+00  0.00000E+00  9.000E+00
      21    -1     0     0   501   502  0.000000000E+00  0.000000000E+00 -6.825381361E+02  6.825381361E+02  0.000000000E+00  0.00000E+00  9.000E+00
      25     1     1     2     0     0 -5.190376969E+00  4.506289060E+01 -3.265654260E+02  3.525996838E+02  1.249958216E+02  0.00000E+00  9.000E+00
       5     1     1     2   501     0 -9.325945810E+00 -1.036452307E+00 -8.199991951E+01  8.267162027E+01  4.750000000E+00  0.00000E+00  9.000E+00
      -5     1     1     2     0   503  2.527575613E+00 -4.998788307E+01 -2.443257680E+02  2.494450250E+02  4.750000000E+00  0.00000E+00  9.000E+00
      21     1     1     2   511   502  1.198874717E+01  5.961444774E+00 -1.047128190E+01  1.699754768E+01  3.769728732E-07  0.00000E+00  9.000E+00
#rwgt            1           9   26.591493827959628               12       85094           0
</event>
<event>
      6   9999 -3.45752E-01  5.19205E+00 -1.00000E+00  2.23198E-01
      21    -1     0     0   512   502  0.000000000E+00  0.000000000E+00  4.977273647E+01  4.977273647E+01  0.000000000E+00  0.00000E+00  9.000E+00
      21    -1     0     0   502   503  0.000000000E+00  0.000000000E+00 -8.311919694E+02  8.311919694E+02  0.000000000E+00  0.00000E+00  9.000E+00
      25     1     1     2     0     0 -3.761686020E+00 -9.954999428E+00 -5.678427089E+02  5.815353253E+02  1.249989606E+02  0.00000E+00  9.000E+00
       5     1     1     2   501     0 -3.847100324E-01  1.217332819E+00  2.173992141E+00  5.377605678E+00  4.750000000E+00  0.00000E+00  9.000E+00
      -5     1     1     2     0   503  9.283798876E+00  9.489005562E+00 -2.545330415E+02  2.549232470E+02  4.750000000E+00  0.00000E+00  9.000E+00
      21     1     1     2   512   501 -5.137402823E+00 -7.513389527E-01  3.878252539E+01  3.912852788E+01  2.523185073E-06  0.00000E+00  9.000E+00
#rwgt            1           9  -2.0859673789027961E-003          12       87006           0
</event>
<event>
      6   9999  3.45752E-01  1.06331E+01 -1.00000E+00  1.84428E-01
      21    -1     0     0   501   502  0.000000000E+00  0.000000000E+00  5.269509876E+02  5.269509876E+02  0.000000000E+00  0.00000E+00  9.000E+00
      21    -1     0     0   502   511  0.000000000E+00  0.000000000E+00 -8.994566950E+01  8.994566950E+01  0.000000000E+00  0.00000E+00  9.000E+00
      25     1     1     2     0     0 -1.282763755E+01  1.435953935E+00 -5.036089584E+00  1.257493340E+02  1.249836891E+02  0.00000E+00  9.000E+00
       5     1     1     2   501     0  4.468647095E+00  6.113664110E+00  4.623300875E+02  4.624164984E+02  4.750000000E+00  0.00000E+00  9.000E+00
      -5     1     1     2     0   503  5.203116083E-01 -3.650420527E-01  1.035211932E+00  4.902870956E+00  4.750000000E+00  0.00000E+00  9.000E+00
      21     1     1     2   503   511  7.838678843E+00 -7.184575993E+00 -2.132389178E+01  2.382795373E+01  2.384185791E-07  0.00000E+00  9.000E+00
#rwgt            1           9   1.3504983585804929E-003          12       92027           0
</event>
<event>
      6   9999 -3.45752E-01  6.63640E+00 -1.00000E+00  2.08136E-01
      21    -1     0     0   501   502  0.000000000E+00  0.000000000E+00  1.481965876E+01  1.481965876E+01  0.000000000E+00  0.00000E+00  9.000E+00
      21    -1     0     0   512   503  0.000000000E+00  0.000000000E+00 -1.076421254E+03  1.076421254E+03  0.000000000E+00  0.00000E+00  9.000E+00
      25     1     1     2     0     0  6.426748171E+00 -1.413045148E+01 -4.643158217E+02  4.810973278E+02  1.249979352E+02  0.00000E+00  9.000E+00
       5     1     1     2   501     0  2.968277902E-01 -1.368530963E-01  5.160361245E+00  7.021300712E+00  4.750000000E+00  0.00000E+00  9.000E+00
      -5     1     1     2     0   503 -4.592039734E+00  2.055207823E+01 -4.184269427E+02  4.189834647E+02  4.750000000E+00  0.00000E+00  9.000E+00
      21     1     1     2   512   502 -2.131536228E+00 -6.284773652E+00 -1.840191924E+02  1.841388200E+02  2.697398305E-06  0.00000E+00  9.000E+00
#rwgt            1           9 -0.75686979928714138               12       94978           0
</event>
<event>
      6   9999  3.45752E-01  6.33531E+01 -1.00000E+00  1.29508E-01
      21    -1     0     0   501   502  0.000000000E+00  0.000000000E+00  5.455544908E+02  5.455544908E+02  0.000000000E+00  0.00000E+00  9.000E+00
      21    -1     0     0   511   503  0.000000000E+00  0.000000000E+00 -1.287259912E+02  1.287259912E+02  0.000000000E+00  0.00000E+00  9.000E+00
      25     1     1     2     0     0  1.006177189E+02 -5.000327239E+01  1.126674977E+02  2.023455170E+02  1.250019624E+02  0.00000E+00  9.000E+00
       5     1     1     2   501     0  1.464547741E+01 -1.050200541E+01  3.313359239E+02  3.318596678E+02  4.750000000E+00  0.00000E+00  9.000E+00
      -5     1     1     2     0   503 -7.131949953E+01  1.487006396E+01 -2.316722873E+01  7.659551425E+01  4.750000000E+00  0.00000E+00  9.000E+00
      21     1     1     2   511   502 -4.394369677E+01  4.563521384E+01 -4.007693320E+00  6.347978288E+01  3.424026159E-07  0.00000E+00  9.000E+00
#rwgt            1           9   1.8136426409371971E-002          12       98939           0
</event>
<event>
      6   9999  3.45752E-01  1.49769E+01 -1.00000E+00  1.70429E-01
      21    -1     0     0   501   512  0.000000000E+00  0.000000000E+00  9.450532043E+02  9.450532043E+02  0.000000000E+00  0.00000E+00  9.000E+00
      21    -1     0     0   502   503  0.000000000E+00  0.000000000E+00 -1.456251341E+03  1.456251341E+03  0.000000000E+00  0.00000E+00  9.000E+00
      25     1     1     2     0     0  9.138243190E+00  1.983126106E+01 -1.168632405E+03  1.175501299E+03  1.249992794E+02  0.00000E+00  9.000E+00
       5     1     1     2   501     0 -8.267083523E+00 -6.317785226E+00  6.534053005E+01  6.633405194E+01  4.750000000E+00  0.00000E+00  9.000E+00
      -5     1     1     2     0   503 -8.972833680E-01  1.463427383E+00 -2.836012105E+02  2.836461808E+02  4.750000000E+00  0.00000E+00  9.000E+00
      21     1     1     2   502   512  2.612370034E-02 -1.497690322E+01  8.756949486E+02  8.758230137E+02  0.000000000E+00  0.00000E+00  9.000E+00
#rwgt            1           9   8.4286413603934952E-003          12       99903           0
</event>
<event>
      6   9999  3.45752E-01  8.50362E+00 -1.00000E+00  1.94927E-01
      21    -1     0     0   501   502  0.000000000E+00  0.000000000E+00  1.049455756E+03  1.049455756E+03  0.000000000E+00  0.00000E+00  9.000E+00
      21    -1     0     0   511   503  0.000000000E+00  0.000000000E+00 -4.778490774E+02  4.778490774E+02  0.000000000E+00  0.00000E+00  9.000E+00
      25     1     1     2     0     0 -4.607920086E+00 -4.302250886E+00  3.584460987E+02  3.796700658E+02  1.250040435E+02  0.00000E+00  9.000E+00
       5     1     1     2   501     0  5.119727557E+00  2.533962437E+00  6.689485188E+02  6.689897727E+02  4.750000000E+00  0.00000E+00  9.000E+00
      -5     1     1     2     0   503  7.922786941E+00  6.869909159E-01  9.506284441E+00  1.327307249E+01  4.750000000E+00  0.00000E+00  9.000E+00
      21     1     1     2   511   502 -8.434594412E+00  1.081297534E+00 -4.652942236E+02  4.653719223E+02  5.394796609E-06  0.00000E+00  9.000E+00
#rwgt            1           9   2.7822007260407338               12      103173           0
</event>
<event>
      6   9999  3.45752E-01  1.03579E+01 -1.00000E+00  1.85599E-01
      21    -1     0     0   501   512  0.000000000E+00  0.000000000E+00  3.966773992E+01  3.966773992E+01  0.000000000E+00  0.00000E+00  9.000E+00
      21    -1     0     0   502   503  0.000000000E+00  0.000000000E+00 -3.239238988E+03  3.239238988E+03  0.000000000E+00  0.00000E+00  9.000E+00
      25     1     1     2     0     0 -2.037408424E+01 -3.270643752E+00 -2.649576021E+03  2.652603678E+03  1.250095254E+02  0.00000E+00  9.000E+00
       5     1     1     2   501     0  1.008151217E+01 -1.365199947E+01  3.346464246E+01  3.782140627E+01  4.750000000E+00  0.00000E+00  9.000E+00
      -5     1     1     2     0   503  2.787528101E+00  9.783986399E+00 -5.749955077E+02  5.751051148E+02  4.750000000E+00  0.00000E+00  9.000E+00
      21     1     1     2   502   512  7.505043970E+00  7.138656820E+00 -8.464362420E+00  1.337652935E+01  4.298152060E-07  0.00000E+00  9.000E+00
#rwgt            1           9   7.3628998099725706E-004          12      106332           0
</event>
<event>
      6   9999  3.45752E-01  1.18320E+01 -1.00000E+00  1.79813E-01
      21    -1     0     0   501   511  0.000000000E+00  0.000000000E+00  9.152446333E+00  9.152446333E+00  0.000000000E+00  0.00000E+00  9.000E+00
      21    -1     0     0   502   503  0.000000000E+00  0.000000000E+00 -8.249640636E+02  8.249640636E+02  0.000000000E+00  0.00000E+00  9.000E+00
      25     1     1     2     0     0 -4.959072410E+00 -2.331531182E+00 -6.532105133E+02  6.650862166E+02  1.250026897E+02  0.00000E+00  9.000E+00
       5     1     1     2   501     0  7.292369484E+00 -2.698591891E-01 -2.825888646E+01  2.956989416E+01  4.750000000E+00  0.00000E+00  9.000E+00
      -5     1     1     2     0   503 -1.816059867E+00  1.442211876E+01 -1.195219695E+02  1.204963040E+02  4.750000000E+00  0.00000E+00  9.000E+00
      21     1     1     2   502   511 -5.172372065E-01 -1.182072838E+01 -1.482024804E+01  1.896409518E+01  4.129530925E-07  0.00000E+00  9.000E+00
#rwgt            1           9   1.3112823540865151E-003          12      110559           0
</event>
<event>
      6   9999  3.45752E-01  9.33146E+00 -1.00000E+00  1.90416E-01
      21    -1     0     0   501   502  0.000000000E+00  0.000000000E+00  3.301451653E+02  3.301451653E+02  0.000000000E+00  0.00000E+00  9.000E+00
       2    -1     0     0   502     0  0.000000000E+00  0.000000000E+00 -2.072935239E+02  2.072935239E+02  0.000000000E+00  0.00000E+00  9.000E+00
      25     1     1     2     0     0  9.456437760E+00  2.066299785E+00  1.399835970E+02  1.879183507E+02  1.249968212E+02  0.00000E+00  9.000E+00
       5     1     1     2   501     0 -9.778032559E-01 -1.387583130E+00  1.113243140E+02  1.114385341E+02  4.750000000E+00  0.00000E+00  9.000E+00
      -5     1     1     2     0   503 -8.177222376E+00 -1.000530598E+01  5.382706670E+01  5.555977613E+01  4.750000000E+00  0.00000E+00  9.000E+00
       2     1     1     2   503     0 -3.014121278E-01  9.326589328E+00 -1.822833363E+02  1.825220283E+02  2.697398305E-06  0.00000E+00  9.000E+00
#rwgt            1           9   1.2586742675282803E-004          12      112491           0
</event>
<event>
      6   9999  3.45752E-01  6.52412E+00 -1.00000E+00  2.09114E-01
      21    -1     0     0   501   511  0.000000000E+00  0.000000000E+00  4.579169717E+00  4.579169717E+00  0.000000000E+00  0.00000E+00  9.000E+00
      21    -1     0     0   502   503  0.000000000E+00  0.000000000E+00 -1.312769150E+03  1.312769150E+03  0.000000000E+00  0.00000E+00  9.000E+00
      25     1     1     2     0     0 -8.880059065E+00 -2.483876100E+00 -1.254586850E+03  1.260832492E+03  1.250015388E+02  0.00000E+00  9.000E+00
       5     1     1     2   501     0 -3.598100300E-01 -1.129167055E-01 -1.233737144E+01  1.322556038E+01  4.750000000E+00  0.00000E+00  9.000E+00
      -5     1     1     2     0   503  3.385293408E+00 -2.821065787E-01 -2.668420854E+01  2.731573322E+01  4.750000000E+00  0.00000E+00  9.000E+00
      21     1     1     2   502   511  5.854575687E+00  2.878899384E+00 -1.458155064E+01  1.597453402E+01  5.331201500E-07  0.00000E+00  9.000E+00
#rwgt            1           9   2.6950615816517986E-002          12      114962           0
</event>
<event>
      6   9999  3.45752E-01  1.60828E+01 -1.00000E+00  1.67789E-01
      21    -1     0     0   512   502  0.000000000E+00  0.000000000E+00  6.968036647E+01  6.968036647E+01  0.000000000E+00  0.00000E+00  9.000E+00
      21    -1     0     0   502   503  0.000000000E+00  0.000000000E+00 -1.401123258E+03  1.401123258E+03  0.000000000E+00  0.00000E+00  9.000E+00
      25     1     1     2     0     0  3.427012101E+01  1.047165002E+02 -1.224249559E+03  1.235536342E+03  1.249923330E+02  0.00000E+00  9.000E+00
       5     1     1     2   501     0 -1.485645080E+00  8.242309769E-01  3.511300206E+01  3.547353819E+01  4.750000000E+00  0.00000E+00  9.000E+00
      -5     1     1     2     0   503 -2.406141002E+01 -1.190523603E+02 -1.110492805E+02  1.646417964E+02  4.750000000E+00  0.00000E+00  9.000E+00
      21     1     1     2   512   501 -8.723065911E+00  1.351162907E+01 -3.125705383E+01  3.515194750E+01  3.371747881E-07  0.00000E+00  9.000E+00
#rwgt            1           9   6.7277746828840211E-005          12      117803           0
</event>
<event>
      6   9999  3.45752E-01  7.45660E+00 -1.00000E+00  2.01702E-01
      21    -1     0     0   502   511  0.000000000E+00  0.000000000E+00  9.423960900E+00  9.423960900E+00  0.000000000E+00  0.00000E+00  9.000E+00
      21    -1     0     0   501   502  0.000000000E+00  0.000000000E+00 -7.023939833E+02  7.023939833E+02  0.000000000E+00  0.00000E+00  9.000E+00
      25     1     1     2     0     0  6.594373827E-01  9.392577005E+00 -6.199443528E+02  6.324909664E+02  1.250006665E+02  0.00000E+00  9.000E+00
       5     1     1     2   501     0 -3.469957910E+00 -8.558422243E-01 -3.874392358E+01  3.919728547E+01  4.750000000E+00  0.00000E+00  9.000E+00
      -5     1     1     2     0   503  5.038270553E+00 -1.420698285E+00 -3.131782176E+01  3.210562277E+01  4.750000000E+00  0.00000E+00  9.000E+00
      21     1     1     2   503   511 -2.227750025E+00 -7.116036496E+00 -2.963924271E+00  8.024069583E+00  4.214684851E-07  0.00000E+00  9.000E+00
#rwgt            1           9   1.6711324109402982E-003          12      121075           0
</event>
<event>
      6   9999  3.45752E-01  1.01968E+01 -1.00000E+00  1.86306E-01
      21    -1     0     0   502   512  0.000000000E+00  0.000000000E+00  3.499270220E+00  3.499270220E+00  0.000000000E+00  0.00000E+00  9.000E+00
      21    -1     0     0   501   502  0.000000000E+00  0.000000000E+00 -1.740948512E+03  1.740948512E+03  0.000000000E+00  0.00000E+00  9.000E+00
      25     1     1     2     0     0  2.499030853E+00  1.657977783E+01 -1.571974263E+03  1.577025366E+03  1.249991491E+02  0.00000E+00  9.000E+00
       5     1     1     2   501     0 -4.822449149E-02  2.459733661E-01 -2.541074399E+01  2.585210317E+01  4.750000000E+00  0.00000E+00  9.000E+00
      -5     1     1     2     0   503 -2.612383422E+00 -6.630189871E+00 -9.408423182E+01  9.447321918E+01  4.750000000E+00  0.00000E+00  9.000E+00
      21     1     1     2   503   512  1.615770598E-01 -1.019556132E+01 -4.598000314E+01  4.709709404E+01  6.743495762E-07  0.00000E+00  9.000E+00
#rwgt            1           9   1.0562190180525456E-004          12      123960           0
</event>
<event>
      6   9999  3.45752E-01  1.81997E+01 -1.00000E+00  1.63402E-01
      21    -1     0     0   501   502  0.000000000E+00  0.000000000E+00  1.263225944E+03  1.263225944E+03  0.000000000E+00  0.00000E+00  9.000E+00
      21    -1     0     0   502   511  0.000000000E+00  0.000000000E+00 -1.467241306E+02  1.467241306E+02  0.000000000E+00  0.00000E+00  9.000E+00
      25     1     1     2     0     0 -4.014181298E+01 -5.852470630E+00  1.280296754E+02  1.836258951E+02  1.252248180E+02  0.00000E+00  9.000E+00
       5     1     1     2   501     0  7.635819686E+00 -2.093807035E+00  8.136598895E+02  8.137122760E+02  4.750000000E+00  0.00000E+00  9.000E+00
      -5     1     1     2     0   503  5.019649824E+01  1.222121150E+01  2.907053342E+02  2.952984935E+02  4.750000000E+00  0.00000E+00  9.000E+00
      21     1     1     2   503   511 -1.769050494E+01 -4.274933834E+00 -1.158930853E+02  1.173134103E+02  2.336015456E-06  0.00000E+00  9.000E+00
#rwgt            1           9   3.1203633612757387E-004          12      125894           0
</event>
<event>
      6   9999  3.45752E-01  6.03480E+00 -1.00000E+00  2.13709E-01
      21    -1     0     0   512   502  0.000000000E+00  0.000000000E+00  7.519874603E+01  7.519874603E+01  0.000000000E+00  0.00000E+00  9.000E+00
      21    -1     0     0   502   503  0.000000000E+00  0.000000000E+00 -8.555750013E+01  8.555750013E+01  0.000000000E+00  0.00000E+00  9.000E+00
      25     1     1     2     0     0 -3.281724634E+00 -6.899986398E+00 -2.698753334E+01  1.281775476E+02  1.250710887E+02  0.00000E+00  9.000E+00
       5     1     1     2   501     0  5.553813477E-03 -7.780001453E-02  1.044701506E+01  1.147644140E+01  4.750000000E+00  0.00000E+00  9.000E+00
      -5     1     1     2     0   503 -1.436900853E+00  3.208731559E+00 -5.423905717E+00  8.021340007E+00  4.750000000E+00  0.00000E+00  9.000E+00
      21     1     1     2   512   501  4.713071674E+00  3.769054853E+00  1.160566991E+01  1.308091713E+01  0.000000000E+00  0.00000E+00  9.000E+00
#rwgt            1           9   3.0590364207077182E-004          12      128025           0
</event>
<event>
      6   9999  3.45752E-01  1.08986E+01 -1.00000E+00  1.83341E-01
      21    -1     0     0   501   502  0.000000000E+00  0.000000000E+00  7.178754626E+00  7.178754626E+00  0.000000000E+00  0.00000E+00  9.000E+00
      21    -1     0     0   511   503  0.000000000E+00  0.000000000E+00 -9.309184098E+02  9.309184098E+02  0.000000000E+00  0.00000E+00  9.000E+00
      25     1     1     2     0     0 -2.043510674E+01 -5.959569877E+00 -6.955790391E+02  7.070439547E+02  1.250113761E+02  0.00000E+00  9.000E+00
       5     1     1     2   501     0 -9.320503948E-01 -1.255107269E-01 -7.409866028E+00  8.851727822E+00  4.750000000E+00  0.00000E+00  9.000E+00
      -5     1     1     2     0   503  1.061460464E+01  4.306676695E+00 -7.269325775E+01  7.374340322E+01  4.750000000E+00  0.00000E+00  9.000E+00
      21     1     1     2   511   502  1.075255250E+01  1.778403909E+00 -1.480574923E+02  1.484580787E+02  1.907348633E-06  0.00000E+00  9.000E+00
#rwgt            1           9   1.1945064183484511E-002          12      130683           0
</event>
<event>
      6   9999  3.45752E-01  1.97244E+01 -1.00000E+00  1.60672E-01
      21    -1     0     0   501   502  0.000000000E+00  0.000000000E+00  1.103114338E+01  1.103114338E+01  0.000000000E+00  0.00000E+00  9.000E+00
      21    -1     0     0   502   512  0.000000000E+00  0.000000000E+00 -8.196178659E+02  8.196178659E+02  0.000000000E+00  0.00000E+00  9.000E+00
      25     1     1     2     0     0 -1.339308410E+00 -1.379320303E+01 -5.975896988E+02  6.106873010E+02  1.250339364E+02  0.00000E+00  9.000E+00
       5     1     1     2   501     0 -1.784964490E+00  1.059277226E+00 -1.116936130E+00  5.302660916E+00  4.750000000E+00  0.00000E+00  9.000E+00
      -5     1     1     2     0   503 -1.539479375E+01  1.952337763E+01 -1.196766772E+02  1.223242883E+02  4.750000000E+00  0.00000E+00  9.000E+00
      21     1     1     2   503   512  1.851906665E+01 -6.789451822E+00 -9.020341039E+01  9.233475906E+01  9.536743164E-07  0.00000E+00  9.000E+00
#rwgt            1           9   7.7863494210396829E-003          12      132473           0
</event>
<event>
      6   9999  3.45752E-01  2.76909E+01 -1.00000E+00  1.50124E-01
       1    -1     0     0   501     0  0.000000000E+00  0.000000000E+00  1.274812894E+03  1.274812894E+03  0.000000000E+00  0.00000E+00  9.000E+00
      21    -1     0     0   502   503  0.000000000E+00  0.000000000E+00 -1.152624171E+03  1.152624171E+03  0.000000000E+00  0.00000E+00  9.000E+00
      25     1     1     2     0     0 -1.316090904E+01  1.777655764E+01 -1.072008558E+03  1.079498382E+03  1.250007678E+02  0.00000E+00  9.000E+00
       5     1     1     2   501     0  1.611432311E+01 -4.772331537E+00  2.187812350E+01  2.799395195E+01  4.750000000E+00  0.00000E+00  9.000E+00
      -5     1     1     2     0   503  2.364020237E+01 -2.072212275E+01 -7.022773731E+01  7.708931915E+01  4.750000000E+00  0.00000E+00  9.000E+00
       1     1     1     2   502     0 -2.659361644E+01  7.717896652E+00  1.242546895E+03  1.242855411E+03  2.157918644E-05  0.00000E+00  9.000E+00
#rwgt            1           9   2.9408911259761324E-004          12      133511           0
</event>
<event>
      6   9999  3.45752E-01  1.10572E+01 -1.00000E+00  1.82711E-01
      21    -1     0     0   501   502  0.000000000E+00  0.000000000E+00  2.244650391E+01  2.244650391E+01  0.000000000E+00  0.00000E+00  9.000E+00
      21    -1     0     0   511   503  0.000000000E+00  0.000000000E+00 -1.042349471E+03  1.042349471E+03  0.000000000E+00  0.00000E+00  9.000E+00
      25     1     1     2     0     0 -5.528147443E+01  3.704671699E+01 -3.366777340E+02  3.652467260E+02  1.249990945E+02  0.00000E+00  9.000E+00
       5     1     1     2   501     0 -1.253655129E+00 -1.053344783E+00  5.543649079E+00  7.481693092E+00  4.750000000E+00  0.00000E+00  9.000E+00
      -5     1     1     2     0   503  4.815810600E+01 -2.877630487E+01 -5.908366272E+02  5.935130676E+02  4.750000000E+00  0.00000E+00  9.000E+00
      21     1     1     2   511   502  8.377023565E+00 -7.217067332E+00 -9.793225528E+01  9.855448852E+01  1.348699152E-06  0.00000E+00  9.000E+00
#rwgt            1           9   3.8799782032834166E-003          12      135468           0
</event>
<event>
      6   9999  3.45752E-01  1.12383E+01 -1.00000E+00  1.82007E-01
      21    -1     0     0   501   512  0.000000000E+00  0.000000000E+00  2.782505628E+01  2.782505628E+01  0.000000000E+00  0.00000E+00  9.000E+00
      21    -1     0     0   502   503  0.000000000E+00  0.000000000E+00 -1.543208819E+03  1.543208819E+03  0.000000000E+00  0.00000E+00  9.000E+00
      25     1     1     2     0     0 -9.477426003E+00 -8.938067302E+00 -1.251724370E+03  1.258017818E+03  1.250008863E+02  0.00000E+00  9.000E+00
       5     1     1     2   501     0  1.630238381E-01 -9.549296284E-01 -1.264670296E+02  1.265599089E+02  4.750000000E+00  0.00000E+00  9.000E+00
      -5     1     1     2     0   503  1.905231939E+00  1.442962038E+00 -1.604960663E+02  1.605841270E+02  4.750000000E+00  0.00000E+00  9.000E+00
      21     1     1     2   502   512  7.409170226E+00  8.450034892E+00  2.330370328E+01  2.587202117E+01  1.261592536E-06  0.00000E+00  9.000E+00
#rwgt            1           9   8.1448150797254724E-003          12      138399           0
</event>
<event>
      6   9999 -3.45752E-01  2.53789E+01 -1.00000E+00  1.52696E-01
      21    -1     0     0   501   502  0.000000000E+00  0.000000000E+00  6.395473474E+02  6.395473474E+02  0.000000000E+00  0.00000E+00  9.000E+00
      21    -1     0     0   502   511  0.000000000E+00  0.000000000E+00 -4.253038651E+01  4.253038651E+01  0.000000000E+00  0.00000E+00  9.000E+00
      25     1     1     2     0     0 -1.278940956E+01  6.152014877E+01  1.282173751E+02  1.897849455E+02  1.250213284E+02  0.00000E+00  9.000E+00
       5     1     1     2   501     0 -1.052750472E+01 -4.973468429E+01  3.019338638E+02  3.062204888E+02  4.750000000E+00  0.00000E+00  9.000E+00
      -5     1     1     2     0   503  5.159212889E+00 -2.951644393E+01  1.552056899E+02  1.581429942E+02  4.750000000E+00  0.00000E+00  9.000E+00
      21     1     1     2   503   511  1.815770139E+01  1.773097944E+01  1.166003217E+01  2.792930543E+01  3.769728732E-07  0.00000E+00  9.000E+00
#rwgt            1           9  -1.9486935309728357               12      140180           0
</event>
<event>
      6   9999  3.45752E-01  1.08761E+01 -1.00000E+00  1.83432E-01
      21    -1     0     0   501   502  0.000000000E+00  0.000000000E+00  1.156833806E+01  1.156833806E+01  0.000000000E+00  0.00000E+00  9.000E+00
      21    -1     0     0   512   503  0.000000000E+00  0.000000000E+00 -9.133222692E+02  9.133222692E+02  0.000000000E+00  0.00000E+00  9.000E+00
      25     1     1     2     0     0 -2.916550249E+01 -3.474306193E+01 -6.260331221E+02  6.400002398E+02  1.250005201E+02  0.00000E+00  9.000E+00
       5     1     1     2   501     0  1.576571053E-01 -1.436048630E+00  2.366339655E-01  4.970471513E+00  4.750000000E+00  0.00000E+00  9.000E+00
      -5     1     1     2     0   503  2.167231856E+01  2.814915870E+01 -1.997243139E+02  2.029148309E+02  4.750000000E+00  0.00000E+00  9.000E+00
      21     1     1     2   512   502  7.335526823E+00  8.029951853E+00 -7.623312909E+01  7.700506510E+01  9.536743164E-07  0.00000E+00  9.000E+00
#rwgt            1           9   8.8117077130644853E-004          12      142031           0
</event>
<event>
      6   9999  3.45752E-01  3.80699E+00 -1.00000E+00  2.52381E-01
      21    -1     0     0   501   511  0.000000000E+00  0.000000000E+00  8.290242205E+02  8.290242205E+02  0.000000000E+00  0.00000E+00  9.000E+00
      21    -1     0     0   502   503  0.000000000E+00  0.000000000E+00 -1.268598161E+01  1.268598161E+01  0.000000000E+00  0.00000E+00  9.000E+00
      25     1     1     2     0     0 -2.817356555E-01 -1.053140206E+00  3.217973567E+02  3.452262318E+02  1.250056952E+02  0.00000E+00  9.000E+00
       5     1     1     2   501     0  1.079992044E+00 -1.700634220E-02  4.469249469E+02  4.469514933E+02  4.750000000E+00  0.00000E+00  9.000E+00
      -5     1     1     2     0   503  2.928023439E+00  2.903967730E-01  8.138751167E+00  9.872153873E+00  4.750000000E+00  0.00000E+00  9.000E+00
      21     1     1     2   502   511 -3.726279827E+00  7.797497755E-01  3.947718414E+01  3.966032323E+01  9.536743164E-07  0.00000E+00  9.000E+00
#rwgt            1           9   1.2062142300325660               12      144392           0
</event>
<event>
      6   9999  3.45752E-01  3.70162E+00 -1.00000E+00  2.55031E-01
      21    -1     0     0   501   502  0.000000000E+00  0.000000000E+00  7.791303793E+00  7.791303793E+00  0.000000000E+00  0.00000E+00  9.000E+00
      21    -1     0     0   512   503  0.000000000E+00  0.000000000E+00 -1.154339963E+03  1.154339963E+03  0.000000000E+00  0.00000E+00  9.000E+00
      25     1     1     2     0     0 -1.071124029E+00 -1.723857721E+00 -6.195189561E+02  6.320073021E+02  1.250014958E+02  0.00000E+00  9.000E+00
       5     1     1     2   501     0 -4.780250776E-01 -1.770151867E-01 -4.156585028E+00  6.332419873E+00  4.750000000E+00  0.00000E+00  9.000E+00
      -5     1     1     2     0   503  1.155035559E+00 -1.779705184E+00 -1.450080371E+01  1.540575431E+01  4.750000000E+00  0.00000E+00  9.000E+00
      21     1     1     2   512   502  3.941135477E-01  3.680578092E+00 -5.083723148E+02  5.083857909E+02  0.000000000E+00  0.00000E+00  9.000E+00
#rwgt            1           9   1.4330430309311866E-004          12      149244           0
</event>
<event>
      6   9999  3.45752E-01  1.92029E+01 -1.00000E+00  1.61570E-01
      21    -1     0     0   511   503  0.000000000E+00  0.000000000E+00  1.018723186E+02  1.018723186E+02  0.000000000E+00  0.00000E+00  9.000E+00
      21    -1     0     0   501   502  0.000000000E+00  0.000000000E+00 -3.849615201E+02  3.849615201E+02  0.000000000E+00  0.00000E+00  9.000E+00
      25     1     1     2     0     0  8.137831270E+01  1.235771978E+01 -1.461446736E+01  1.503771828E+02  1.249982858E+02  0.00000E+00  9.000E+00
       5     1     1     2   501     0 -1.094369404E+02 -3.135225692E+00 -2.816887674E+02  3.022538631E+02  4.750000000E+00  0.00000E+00  9.000E+00
      -5     1     1     2     0   503  1.005264367E+01 -2.548948147E+00  1.013230605E+00  1.145172117E+01  4.750000000E+00  0.00000E+00  9.000E+00
      21     1     1     2   511   502  1.800598404E+01 -6.673545943E+00  1.220080256E+01  2.275107162E+01  3.371747881E-07  0.00000E+00  9.000E+00
#rwgt            1           9  0.53351313507020282               12      154038           0
</event>
<event>
      6   9999  3.45752E-01  6.79728E+00 -1.00000E+00  2.06779E-01
      21    -1     0     0   501   502  0.000000000E+00  0.000000000E+00  2.602541276E+03  2.602541276E+03  0.000000000E+00  0.00000E+00  9.000E+00
      21    -1     0     0   512   503  0.000000000E+00  0.000000000E+00 -9.190813819E+01  9.190813819E+01  0.000000000E+00  0.00000E+00  9.000E+00
      25     1     1     2     0     0 -3.864600620E+00  8.082738067E+00  2.417709645E+03  2.420955464E+03  1.250006622E+02  0.00000E+00  9.000E+00
       5     1     1     2   501     0  1.025734468E-02  2.848869670E-01  1.087589624E+02  1.088630133E+02  4.750000000E+00  0.00000E+00  9.000E+00
      -5     1     1     2     0   503  3.377634601E+00 -1.587077887E+00  7.414671967E+01  7.439237710E+01  4.750000000E+00  0.00000E+00  9.000E+00
      21     1     1     2   512   502  4.767086743E-01 -6.780547147E+00 -8.998218984E+01  9.023855916E+01  4.473129043E-06  0.00000E+00  9.000E+00
#rwgt            1           9   3.3132949702003776E-003          12      156225           0
</event>
<event>
      6   9999  3.45752E-01  4.01502E+00 -1.00000E+00  2.47514E-01
      21    -1     0     0   501   502  0.000000000E+00  0.000000000E+00  1.375981129E+02  1.375981129E+02  0.000000000E+00  0.00000E+00  9.000E+00
      21    -1     0     0   502   511  0.000000000E+00  0.000000000E+00 -2.099173373E+02  2.099173373E+02  0.000000000E+00  0.00000E+00  9.000E+00
      25     1     1     2     0     0 -9.587400160E+01  1.980340249E+01 -4.978247610E+01  1.663936026E+02  1.249981485E+02  0.00000E+00  9.000E+00
       5     1     1     2   501     0  4.083242864E-01 -2.103164706E+00  4.818143863E+01  4.846239324E+01  4.750000000E+00  0.00000E+00  9.000E+00
      -5     1     1     2     0   503  9.643284132E+01 -1.380344826E+01 -4.638959471E+01  1.080017827E+02  4.750000000E+00  0.00000E+00  9.000E+00
      21     1     1     2   503   511 -9.671640112E-01 -3.896789522E+00 -2.432859221E+01  2.465767170E+01  0.000000000E+00  0.00000E+00  9.000E+00
#rwgt            1           9   3.1427798980389575E-003          12      159558           0
</event>
<event>
      6   9999  3.45752E-01  1.41079E+01 -1.00000E+00  1.72712E-01
      21    -1     0     0   501   502  0.000000000E+00  0.000000000E+00  1.364665689E+03  1.364665689E+03  0.000000000E+00  0.00000E+00  9.000E+00
      21    -1     0     0   502   512  0.000000000E+00  0.000000000E+00 -1.632943801E+02  1.632943801E+02  0.000000000E+00  0.00000E+00  9.000E+00
      25     1     1     2     0     0 -2.624762495E+02  9.733582747E+01  2.094719548E+02  3.713108338E+02  1.250007623E+02  0.00000E+00  9.000E+00
       5     1     1     2   501     0  4.771889268E+00 -6.002891453E+00  7.162854136E+02  7.163422100E+02  4.750000000E+00  0.00000E+00  9.000E+00
      -5     1     1     2     0   503  2.509137657E+02 -7.896681082E+01  3.079484774E+02  4.050287672E+02  4.750000000E+00  0.00000E+00  9.000E+00
      21     1     1     2   503   512  6.790594593E+00 -1.236612520E+01 -3.233453682E+01  3.527825816E+01  4.768371582E-07  0.00000E+00  9.000E+00
#rwgt            1           9   2.7382120203278278E-003          12      165360           0
</event>
<event>
      6   9999  3.45752E-01  3.22906E+01 -1.00000E+00  1.45800E-01
      21    -1     0     0   502   503  0.000000000E+00  0.000000000E+00  2.914620466E+01  2.914620466E+01  0.000000000E+00  0.00000E+00  9.000E+00
      21    -1     0     0   501   511  0.000000000E+00  0.000000000E+00 -1.615834024E+03  1.615834024E+03  0.000000000E+00  0.00000E+00  9.000E+00
      25     1     1     2     0     0  9.152016306E+01 -6.684722142E+01 -3.216318697E+02  3.632080869E+02  1.250142532E+02  0.00000E+00  9.000E+00
       5     1     1     2   501     0 -9.984999281E+01  8.855431732E+01 -7.540187027E+02  7.657536515E+02  4.750000000E+00  0.00000E+00  9.000E+00
      -5     1     1     2     0   503 -1.070137346E+01  4.379269286E+00 -1.794273319E+01  2.186782037E+01  4.750000000E+00  0.00000E+00  9.000E+00
      21     1     1     2   502   511  1.903120321E+01 -2.608636519E+01 -4.930945139E+02  4.941506701E+02  5.394796609E-06  0.00000E+00  9.000E+00
#rwgt            1           9   4.2728756022345242E-003          12      169894           0
</event>
<event>
      6   9999  3.45752E-01  2.02297E+01 -1.00000E+00  1.59833E-01
      21    -1     0     0   501   512  0.000000000E+00  0.000000000E+00  1.558952723E+01  1.558952723E+01  0.000000000E+00  0.00000E+00  9.000E+00
      21    -1     0     0   502   503  0.000000000E+00  0.000000000E+00 -8.734523386E+02  8.734523386E+02  0.000000000E+00  0.00000E+00  9.000E+00
      25     1     1     2     0     0  3.056821361E+01 -5.680070178E+00 -8.058680018E+02  8.160972445E+02  1.249991894E+02  0.00000E+00  9.000E+00
       5     1     1     2   501     0  4.361950307E+00 -1.630075461E+00  1.548114147E+00  6.829561765E+00  4.750000000E+00  0.00000E+00  9.000E+00
      -5     1     1     2     0   503 -1.763697471E+01 -3.186739319E+00 -2.652663475E+01  3.236422463E+01  4.750000000E+00  0.00000E+00  9.000E+00
      21     1     1     2   502   512 -1.729318920E+01  1.049688496E+01 -2.701628902E+01  3.375083494E+01  8.920806376E-07  0.00000E+00  9.000E+00
#rwgt            1           9   2.6455747223074134E-004          12      171431           0
</event>
<event>
      6   9999 -3.45752E-01  1.49090E+01 -1.00000E+00  1.70601E-01
      21    -1     0     0   502   503  0.000000000E+00  0.000000000E+00  1.142167355E+01  1.142167355E+01  0.000000000E+00  0.00000E+00  9.000E+00
       2    -1     0     0   501     0  0.000000000E+00  0.000000000E+00 -2.065664457E+03  2.065664457E+03  0.000000000E+00  0.00000E+00  9.000E+00
      25     1     1     2     0     0 -1.455405991E+01 -1.761584592E+01 -6.868180091E+02  6.984705363E+02  1.249798932E+02  0.00000E+00  9.000E+00
       5     1     1     2   501     0  5.234576043E+00  1.147499642E+01 -9.628046542E+01  9.721916915E+01  4.750000000E+00  0.00000E+00  9.000E+00
      -5     1     1     2     0   503  1.928004285E+01  1.723439976E+01 -2.893082072E+01  3.909347100E+01  4.750000000E+00  0.00000E+00  9.000E+00
       2     1     1     2   502     0 -9.960558978E+00 -1.109355026E+01 -1.242213488E+03  1.242302954E+03  0.000000000E+00  0.00000E+00  9.000E+00
#rwgt            1           9 -0.61000709765978745               12      172890           0
</event>
<event>
      6   9999  3.45752E-01  7.89229E+00 -1.00000E+00  1.98715E-01
      21    -1     0     0   511   502  0.000000000E+00  0.000000000E+00  5.020830181E+02  5.020830181E+02  0.000000000E+00  0.00000E+00  9.000E+00
      21    -1     0     0   502   503  0.000000000E+00  0.000000000E+00 -9.602656725E+01  9.602656725E+01  0.000000000E+00  0.00000E+00  9.000E+00
      25     1     1     2     0     0 -7.387217045E+01  3.945892324E+01 -1.692634516E+01  1.514184373E+02  1.250077510E+02  0.00000E+00  9.000E+00
       5     1     1     2   501     0 -1.994571175E+00 -1.700880118E+00  1.915064961E+02  1.915833287E+02  4.750000000E+00  0.00000E+00  9.000E+00
      -5     1     1     2     0   503  6.989869920E+01 -3.259367701E+01  1.161070986E+02  1.394689814E+02  4.750000000E+00  0.00000E+00  9.000E+00
      21     1     1     2   511   501  5.968042426E+00 -5.164366112E+00  1.153692013E+02  1.156388379E+02  0.000000000E+00  0.00000E+00  9.000E+00
#rwgt            1           9   1.4322670883797743E-003          12      175179           0
</event>
<event>
      6   9999  3.45752E-01  1.51078E+01 -1.00000E+00  1.70102E-01
      21    -1     0     0   501   502  0.000000000E+00  0.000000000E+00  9.462324304E+01  9.462324304E+01  0.000000000E+00  0.00000E+00  9.000E+00
      21    -1     0     0   512   503  0.000000000E+00  0.000000000E+00 -1.876489314E+03  1.876489314E+03  0.000000000E+00  0.00000E+00  9.000E+00
      25     1     1     2     0     0 -1.532281649E+02  1.234844042E+02 -1.451861266E+02  2.746339474E+02  1.249700969E+02  0.00000E+00  9.000E+00
       5     1     1     2   501     0  1.235812685E+00 -1.209136461E+00  2.347436041E+01  2.401244138E+01  4.750000000E+00  0.00000E+00  9.000E+00
      -5     1     1     2     0   503  1.368846768E+02 -1.223455109E+02 -1.418386757E+03  1.430227042E+03  4.750000000E+00  0.00000E+00  9.000E+00
      21     1     1     2   512   502  1.510767543E+01  7.024314080E-02 -2.417675481E+02  2.422391259E+02  2.697398305E-06  0.00000E+00  9.000E+00
#rwgt            1           9   2.0625637162798131E-003          12      179156           0
</event>
<event>
      6   9999 -3.45752E-01  5.83979E+00 -1.00000E+00  2.15708E-01
      21    -1     0     0   501   502  0.000000000E+00  0.000000000E+00  7.189459596E+01  7.189459596E+01  0.000000000E+00  0.00000E+00  9.000E+00
      21    -1     0     0   502   511  0.000000000E+00  0.000000000E+00 -1.650767095E+02  1.650767095E+02  0.000000000E+00  0.00000E+00  9.000E+00
      25     1     1     2     0     0  1.945792567E+01 -2.071982654E-01 -8.673137653E+01  1.533807369E+02  1.249986599E+02  0.00000E+00  9.000E+00
       5     1     1     2   501     0 -8.784455076E-01  7.547991753E-01  1.320110162E+01  1.407739224E+01  4.750000000E+00  0.00000E+00  9.000E+00
      -5     1     1     2     0   503 -2.441608545E+01 -7.403273775E-01  1.844246026E+01  3.097386243E+01  4.750000000E+00  0.00000E+00  9.000E+00
      21     1     1     2   503   511  5.836605294E+00  1.927264676E-01 -3.809429889E+01  3.853931386E+01  9.536743164E-07  0.00000E+00  9.000E+00
#rwgt            1           9  -8.9991785080118837E-004          12      182963           0
</event>
<event>
      6   9999  3.45752E-01  1.74557E+01 -1.00000E+00  1.64856E-01
      21    -1     0     0   501   502  0.000000000E+00  0.000000000E+00  1.636277122E+01  1.636277122E+01  0.000000000E+00  0.00000E+00  9.000E+00
      21    -1     0     0   512   503  0.000000000E+00  0.000000000E+00 -5.742477243E+02  5.742477243E+02  0.000000000E+00  0.00000E+00  9.000E+00
      25     1     1     2     0     0 -1.560231215E+01  1.217150978E+01 -3.583639602E+02  3.800432937E+02  1.249663928E+02  0.00000E+00  9.000E+00
       5     1     1     2   501     0 -3.006701953E+00  2.531806340E-01  2.917572792E+00  6.338697663E+00  4.750000000E+00  0.00000E+00  9.000E+00
      -5     1     1     2     0   503  3.607187264E+00 -3.500170712E+00 -1.058226113E+02  1.060483407E+02  4.750000000E+00  0.00000E+00  9.000E+00
      21     1     1     2   512   502  1.500182684E+01 -8.924519698E+00 -9.661595438E+01  9.818016348E+01  1.348699152E-06  0.00000E+00  9.000E+00
#rwgt            1           9   2.1919699729108386E-002          12      186420           0
</event>
<event>
      6   9999  3.45752E-01  1.83183E+01 -1.00000E+00  1.63178E-01
       3    -1     0     0   501     0  0.000000000E+00  0.000000000E+00  2.147082102E+02  2.147082102E+02  0.000000000E+00  0.00000E+00  9.000E+00
      21    -1     0     0   502   503  0.000000000E+00  0.000000000E+00 -1.374508847E+03  1.374508847E+03  0.000000000E+00  0.00000E+00  9.000E+00
      25     1     1     2     0     0 -5.350152328E+00  1.256555948E+00 -1.249805172E+03  1.256052620E+03  1.250000554E+02  0.00000E+00  9.000E+00
       5     1     1     2   501     0  1.959585973E+01 -4.068152664E+00  1.192481547E+02  1.210092248E+02  4.750000000E+00  0.00000E+00  9.000E+00
      -5     1     1     2     0   503  3.181458296E-01 -8.299397288E+00 -1.195891565E+02  1.199712885E+02  4.750000000E+00  0.00000E+00  9.000E+00
       3     1     1     2   502     0 -1.456385323E+01  1.111099400E+01  9.034553621E+01  9.218392442E+01  2.523185073E-06  0.00000E+00  9.000E+00
#rwgt            1           9   1.2055635061048187               12      187787           0
</event>
<event>
      6   9999  3.45752E-01  2.22493E+00 -1.00000E+00  3.15950E-01
      21    -1     0     0   501   502  0.000000000E+00  0.000000000E+00  5.484566998E+01  5.484566998E+01  0.000000000E+00  0.00000E+00  9.000E+00
      21    -1     0     0   502   511  0.000000000E+00  0.000000000E+00 -1.394318845E+02  1.394318845E+02  0.000000000E+00  0.00000E+00  9.000E+00
      25     1     1     2     0     0  1.293315580E-01  8.499609582E-01 -6.084382494E+01  1.390232383E+02  1.249990024E+02  0.00000E+00  9.000E+00
       5     1     1     2   501     0 -2.256930929E-01 -8.523062217E-01  1.253346094E+01  1.343233064E+01  4.750000000E+00  0.00000E+00  9.000E+00
      -5     1     1     2     0   503 -2.080083099E+00  4.642852105E-01  2.654704538E-01  5.212991561E+00  4.750000000E+00  0.00000E+00  9.000E+00
      21     1     1     2   503   511  2.176444634E+00 -4.619399470E-01 -3.654132098E+01  3.660899396E+01  6.743495762E-07  0.00000E+00  9.000E+00
#rwgt            1           9   2.3054936991858785E-003          12      191183           0
</event>
<event>
      6   9999  3.45752E-01  2.53475E+01 -1.00000E+00  1.52733E-01
      21    -1     0     0   501   512  0.000000000E+00  0.000000000E+00  3.221572618E+03  3.221572618E+03  0.000000000E+00  0.00000E+00  9.000E+00
      21    -1     0     0   502   503  0.000000000E+00  0.000000000E+00 -3.513014655E+01  3.513014655E+01  0.000000000E+00  0.00000E+00  9.000E+00
      25     1     1     2     0     0 -9.090758717E+01 -1.111010941E+02  2.435674477E+02  3.091242389E+02  1.250002041E+02  0.00000E+00  9.000E+00
       5     1     1     2   501     0  1.752141895E+00 -9.830962196E-01  7.443193992E+02  7.443372669E+02  4.750000000E+00  0.00000E+00  9.000E+00
      -5     1     1     2     0   503  7.129803579E+01  9.409504988E+01  1.775356301E+03  1.779283521E+03  4.750000000E+00  0.00000E+00  9.000E+00
      21     1     1     2   502   512  1.785740949E+01  1.798914043E+01  4.231993238E+02  4.239577384E+02  5.394796609E-06  0.00000E+00  9.000E+00
#rwgt            1           9   1.6445562802576485E-002          12      197900           0
</event>
<event>
      6   9999 -3.45752E-01  7.19752E+01 -1.00000E+00  1.26834E-01
      21    -1     0     0   502   511  0.000000000E+00  0.000000000E+00  4.254991063E+01  4.254991063E+01  0.000000000E+00  0.00000E+00  9.000E+00
      21    -1     0     0   501   502  0.000000000E+00  0.000000000E+00 -1.277669625E+03  1.277669625E+03  0.000000000E+00  0.00000E+00  9.000E+00
      25     1     1     2     0     0  1.040713730E+01 -1.039912403E+02 -3.355384025E+02  3.730075380E+02  1.250044689E+02  0.00000E+00  9.000E+00
       5     1     1     2   501     0  5.215264849E+01 -6.306091319E+01 -5.141614922E+02  5.206545688E+02  4.750000000E+00  0.00000E+00  9.000E+00
      -5     1     1     2     0   503 -5.586876173E+01  9.538864607E+01 -2.416595383E+02  2.657860179E+02  4.750000000E+00  0.00000E+00  9.000E+00
      21     1     1     2   503   511 -6.691024053E+00  7.166350742E+01 -1.437602819E+02  1.607714115E+02  3.303624740E-06  0.00000E+00  9.000E+00
#rwgt            1           9  -2.0475548243925017               12      200077           0
</event>
<event>
      6   9999  3.45752E-01  7.83999E+01 -1.00000E+00  1.25104E-01
      21    -1     0     0   501   502  0.000000000E+00  0.000000000E+00  6.612396361E+01  6.612396361E+01  0.000000000E+00  0.00000E+00  9.000E+00
      21    -1     0     0   512   503  0.000000000E+00  0.000000000E+00 -3.273982706E+03  3.273982706E+03  0.000000000E+00  0.00000E+00  9.000E+00
      25     1     1     2     0     0  1.782463700E+02 -1.080541324E+02 -2.696509018E+02  3.630187239E+02  1.249940844E+02  0.00000E+00  9.000E+00
       5     1     1     2   501     0  1.004569759E+01  3.025570738E-01  1.345659320E+01  1.745422532E+01  4.750000000E+00  0.00000E+00  9.000E+00
      -5     1     1     2     0   503 -1.208606963E+02  6.775712396E+01 -1.896275734E+03  1.901337045E+03  4.750000000E+00  0.00000E+00  9.000E+00
      21     1     1     2   512   502 -6.743137126E+01  3.999445138E+01 -1.055388700E+03  1.058296676E+03  0.000000000E+00  0.00000E+00  9.000E+00
#rwgt            1           9   3.1649972220182138E-004          12      201248           0
</event>
<event>
      6   9999  3.45752E-01  2.11147E+01 -1.00000E+00  1.58433E-01
      21    -1     0     0   501   502  0.000000000E+00  0.000000000E+00  4.588344076E+01  4.588344076E+01  0.000000000E+00  0.00000E+00  9.000E+00
      21    -1     0     0   511   503  0.000000000E+00  0.000000000E+00 -6.455048067E+02  6.455048067E+02  0.000000000E+00  0.00000E+00  9.000E+00
      25     1     1     2     0     0  4.789618084E+01  5.909120680E+01 -1.638446258E+02  2.196473808E+02  1.249563749E+02  0.00000E+00  9.000E+00
       5     1     1     2   501     0  1.238565077E-01  1.422043316E+00  1.014944340E+01  1.129651491E+01  4.750000000E+00  0.00000E+00  9.000E+00
      -5     1     1     2     0   503 -4.280462332E+01 -4.005284396E+01 -1.180545443E+02  1.318935329E+02  4.750000000E+00  0.00000E+00  9.000E+00
      21     1     1     2   511   502 -5.215414027E+00 -2.046040615E+01 -3.278716393E+02  3.285508189E+02  0.000000000E+00  0.00000E+00  9.000E+00
#rwgt            1           9   5.1725840499212801               12      202211           0
</event>
<event>
      6   9999  3.45752E-01  1.93271E+01 -1.00000E+00  1.61353E-01
      21    -1     0     0   501   512  0.000000000E+00  0.000000000E+00  2.893339786E+02  2.893339786E+02  0.000000000E+00  0.00000E+00  9.000E+00
      21    -1     0     0   502   503  0.000000000E+00  0.000000000E+00 -1.626130184E+03  1.626130184E+03  0.000000000E+00  0.00000E+00  9.000E+00
      25     1     1     2     0     0  1.369972303E+01  1.531164396E+01 -8.999129438E+02  9.087583896E+02  1.248053504E+02  0.00000E+00  9.000E+00
       5     1     1     2   501     0 -1.717931491E+01 -1.930058513E+01  9.471447756E+01  9.829057028E+01  4.750000000E+00  0.00000E+00  9.000E+00
      -5     1     1     2     0   503  1.696004530E+01 -9.860743916E+00 -7.193688835E+02  7.196520204E+02  4.750000000E+00  0.00000E+00  9.000E+00
      21     1     1     2   502   512 -1.348045341E+01  1.384968509E+01  1.877711442E+02  1.887631823E+02  6.031565972E-06  0.00000E+00  9.000E+00
#rwgt            1           9   5.1935392403749763E-004          12      204143           0
</event>
<event>
      6   9999  3.45752E-01  3.37239E+01 -1.00000E+00  1.44624E-01
      21    -1     0     0   502   503  0.000000000E+00  0.000000000E+00  9.218030715E+00  9.218030715E+00  0.000000000E+00  0.00000E+00  9.000E+00
      21    -1     0     0   501   511  0.000000000E+00  0.000000000E+00 -9.012583030E+02  9.012583030E+02  0.000000000E+00  0.00000E+00  9.000E+00
      25     1     1     2     0     0 -4.605286998E+00 -1.988420973E+01 -5.974864384E+02  6.107635490E+02  1.250019131E+02  0.00000E+00  9.000E+00
       5     1     1     2   501     0 -6.574448245E-01 -1.138771429E+00 -1.337837031E+01  1.425736042E+01  4.750000000E+00  0.00000E+00  9.000E+00
      -5     1     1     2     0   503 -8.580016818E+00 -9.728887077E+00 -5.163921782E+01  5.345502081E+01  4.750000000E+00  0.00000E+00  9.000E+00
      21     1     1     2   502   511  1.384274864E+01  3.075186824E+01 -2.295362458E+02  2.320004035E+02  0.000000000E+00  0.00000E+00  9.000E+00
#rwgt            1           9   1.6899256226596702E-003          12      207081           0
</event>
<event>
      6   9999  3.45752E-01  1.68658E+01 -1.00000E+00  1.66074E-01
      21    -1     0     0   512   503  0.000000000E+00  0.000000000E+00  1.292439534E+01  1.292439534E+01  0.000000000E+00  0.00000E+00  9.000E+00
      21    -1     0     0   501   502  0.000000000E+00  0.000000000E+00 -7.275129453E+02  7.275129453E+02  0.000000000E+00  0.00000E+00  9.000E+00
      25     1     1     2     0     0 -9.404342941E-01  1.713931815E+01 -6.755652765E+02  6.872465421E+02  1.249989049E+02  0.00000E+00  9.000E+00
       5     1     1     2   501     0  4.708477621E+00 -2.874697317E+00 -1.125900015E+01  1.340750650E+01  4.750000000E+00  0.00000E+00  9.000E+00
      -5     1     1     2     0   503  3.425995005E+00  9.899559503E-01 -2.063450036E+01  2.147236735E+01  4.750000000E+00  0.00000E+00  9.000E+00
      21     1     1     2   512   502 -7.194038331E+00 -1.525457678E+01 -7.129772986E+00  1.831092469E+01  2.795705652E-07  0.00000E+00  9.000E+00
#rwgt            1           9   1.0195234652616692E-004          12      208441           0
</event>
<event>
      6   9999  3.45752E-01  5.95570E+00 -1.00000E+00  2.14507E-01
      21    -1     0     0   502   511  0.000000000E+00  0.000000000E+00  5.932860053E+01  5.932860053E+01  0.000000000E+00  0.00000E+00  9.000E+00
      21    -1     0     0   501   502  0.000000000E+00  0.000000000E+00 -1.170810748E+02  1.170810748E+02  0.000000000E+00  0.00000E+00  9.000E+00
      25     1     1     2     0     0 -8.598305140E-01 -7.990327637E+00 -2.567686972E+01  1.278589591E+02  1.249961085E+02  0.00000E+00  9.000E+00
       5     1     1     2   501     0  1.078738853E+00  2.062995096E+00 -3.290098497E+01  3.332351930E+01  4.750000000E+00  0.00000E+00  9.000E+00
      -5     1     1     2     0   503 -3.345209747E+00  8.581553554E-01 -4.372888782E+00  7.321988470E+00  4.750000000E+00  0.00000E+00  9.000E+00
      21     1     1     2   503   511  3.126301408E+00  5.069177185E+00  5.198269229E+00  7.905208460E+00  1.332800375E-07  0.00000E+00  9.000E+00
#rwgt            1           9  0.16005973020676434               12      209946           0
</event>
<event>
      6   9999  3.45752E-01  6.62872E+00 -1.00000E+00  2.08202E-01
      21    -1     0     0   501   512  0.000000000E+00  0.000000000E+00  2.209019656E+02  2.209019656E+02  0.000000000E+00  0.00000E+00  9.000E+00
      21    -1     0     0   502   503  0.000000000E+00  0.000000000E+00 -7.471135329E+02  7.471135329E+02  0.000000000E+00  0.00000E+00  9.000E+00
      25     1     1     2     0     0 -8.378651240E+00 -5.070629260E+00 -7.183204601E+02  7.291816608E+02  1.250027919E+02  0.00000E+00  9.000E+00
       5     1     1     2   501     0 -5.542828746E-01  2.335812732E-01  1.314181099E+00  4.965013764E+00  4.750000000E+00  0.00000E+00  9.000E+00
      -5     1     1     2     0   503  8.966735723E+00 -1.791583634E+00 -2.024956878E+01  2.272046781E+01  4.750000000E+00  0.00000E+00  9.000E+00
      21     1     1     2   502   512 -3.380160811E-02  6.628631621E+00  2.110442806E+02  2.111483561E+02  6.607249480E-06  0.00000E+00  9.000E+00
#rwgt            1           9   8.8411027173717943E-004          12      213890           0
</event>
<event>
      6   9999  3.45752E-01  5.07386E+00 -1.00000E+00  2.24730E-01
      21    -1     0     0   501   502  0.000000000E+00  0.000000000E+00  1.539337225E+02  1.539337225E+02  0.000000000E+00  0.00000E+00  9.000E+00
      21    -1     0     0   511   503  0.000000000E+00  0.000000000E+00 -6.119302778E+01  6.119302778E+01  0.000000000E+00  0.00000E+00  9.000E+00
      25     1     1     2     0     0  6.510871139E+00 -1.080337024E+01  6.189832390E+01  1.400572909E+02  1.250021519E+02  0.00000E+00  9.000E+00
       5     1     1     2   501     0  1.664804684E+00  1.532817825E+00  4.772394696E+01  4.801310986E+01  4.750000000E+00  0.00000E+00  9.000E+00
      -5     1     1     2     0   503 -5.595504387E+00  1.363939332E+01 -1.522529742E+01  2.171899862E+01  4.750000000E+00  0.00000E+00  9.000E+00
      21     1     1     2   511   502 -2.580171436E+00 -4.368840903E+00 -1.656278713E+00  5.337350902E+00  2.980232239E-08  0.00000E+00  9.000E+00
#rwgt            1           9   1.9218090796112634E-002          12      216589           0
</event>
<event>
      6   9999  3.45752E-01  1.25409E+01 -1.00000E+00  1.77398E-01
      21    -1     0     0   501   502  0.000000000E+00  0.000000000E+00  7.240643753E+00  7.240643753E+00  0.000000000E+00  0.00000E+00  9.000E+00
      21    -1     0     0   512   503  0.000000000E+00  0.000000000E+00 -4.035829001E+03  4.035829001E+03  0.000000000E+00  0.00000E+00  9.000E+00
      25     1     1     2     0     0  1.356579375E+01 -2.052123908E+01 -2.552408637E+03  2.555586033E+03  1.249998663E+02  0.00000E+00  9.000E+00
       5     1     1     2   501     0 -2.598267100E+00 -2.379770407E-01  4.019091581E+00  6.747089901E+00  4.750000000E+00  0.00000E+00  9.000E+00
      -5     1     1     2     0   503 -3.836683985E+00  1.044295958E+01 -1.317349787E+03  1.317405329E+03  4.750000000E+00  0.00000E+00  9.000E+00
      21     1     1     2   512   502 -7.130842670E+00  1.031625654E+01 -1.628490241E+02  1.633311933E+02  1.907348633E-06  0.00000E+00  9.000E+00
#rwgt            1           9   2.1313182204350242E-002          12      221082           0
</event>
<event>
      6   9999  3.45752E-01  3.72999E+00 -1.00000E+00  2.54304E-01
      21    -1     0     0   511   502  0.000000000E+00  0.000000000E+00  3.431469397E+01  3.431469397E+01  0.000000000E+00  0.00000E+00  9.000E+00
      21    -1     0     0   502   503  0.000000000E+00  0.000000000E+00 -1.158849451E+03  1.158849451E+03  0.000000000E+00  0.00000E+00  9.000E+00
      25     1     1     2     0     0 -1.103699193E+01  3.490454934E+00 -1.056002167E+03  1.063428294E+03  1.249206149E+02  0.00000E+00  9.000E+00
       5     1     1     2   501     0  5.421554107E+00 -5.280951888E+00  2.947193892E+01  3.079674310E+01  4.750000000E+00  0.00000E+00  9.000E+00
      -5     1     1     2     0   503  1.971654566E+00  2.587786295E+00 -8.908808308E+01  8.927392176E+01  4.750000000E+00  0.00000E+00  9.000E+00
      21     1     1     2   511   501  3.643783252E+00 -7.972893406E-01 -8.916445445E+00  9.665186291E+00  1.192092896E-07  0.00000E+00  9.000E+00
#rwgt            1           9   2.7097114221601387E-005          12      223884           0
</event>
<event>
      6   9999  3.45752E-01  5.28659E+01 -1.00000E+00  1.33505E-01
      21    -1     0     0   501   502  0.000000000E+00  0.000000000E+00  3.063566144E+01  3.063566144E+01  0.000000000E+00  0.00000E+00  9.000E+00
      21    -1     0     0   512   503  0.000000000E+00  0.000000000E+00 -1.314407285E+03  1.314407285E+03  0.000000000E+00  0.00000E+00  9.000E+00
      25     1     1     2     0     0 -1.430412487E+02  1.244666013E+01 -4.182406475E+02  4.595339906E+02  1.250221225E+02  0.00000E+00  9.000E+00
       5     1     1     2   501     0  4.949667139E+00 -6.248719203E+00 -4.728566748E+01  4.818757667E+01  4.750000000E+00  0.00000E+00  9.000E+00
      -5     1     1     2     0   503  1.158713202E+02  4.177149785E+01 -6.209562440E+02  6.330720657E+02  4.750000000E+00  0.00000E+00  9.000E+00
      21     1     1     2   512   502  2.222026133E+01 -4.796943877E+01 -1.972890648E+02  2.042493137E+02  0.000000000E+00  0.00000E+00  9.000E+00
#rwgt            1           9   1.7614134834442770E-004          12      230875           0
</event>
<event>
      6   9999  3.45752E-01  1.84251E+01 -1.00000E+00  1.62978E-01
      21    -1     0     0   501   502  0.000000000E+00  0.000000000E+00  6.701124976E+01  6.701124976E+01  0.000000000E+00  0.00000E+00  9.000E+00
       2    -1     0     0   502     0  0.000000000E+00  0.000000000E+00 -2.111183798E+02  2.111183798E+02  0.000000000E+00  0.00000E+00  9.000E+00
      25     1     1     2     0     0 -1.129939652E+01  2.037471622E+01 -1.116289031E+01  1.276477412E+02  1.250061210E+02  0.00000E+00  9.000E+00
       5     1     1     2   501     0 -1.097309189E+01 -2.844471856E+01 -3.922502445E+01  4.990667092E+01  4.750000000E+00  0.00000E+00  9.000E+00
      -5     1     1     2     0   503  7.052180018E+00 -2.313968323E+00 -5.357089572E+00  1.031254581E+01  4.750000000E+00  0.00000E+00  9.000E+00
       2     1     1     2   503     0  1.522030839E+01  1.038397066E+01 -8.836212569E+01  9.026267163E+01  0.000000000E+00  0.00000E+00  9.000E+00
#rwgt            1           9  0.51215766896928661               12      231952           0
</event>
<event>
      6   9999  3.45752E-01  1.06432E+01 -1.00000E+00  1.84386E-01
      21    -1     0     0   501   511  0.000000000E+00  0.000000000E+00  1.216105323E+01  1.216105323E+01  0.000000000E+00  0.00000E+00  9.000E+00
      21    -1     0     0   502   503  0.000000000E+00  0.000000000E+00 -8.696903681E+02  8.696903681E+02  0.000000000E+00  0.00000E+00  9.000E+00
      25     1     1     2     0     0 -7.288115459E+00 -2.907173020E+01 -4.384516301E+02  4.569054520E+02  1.249979120E+02  0.00000E+00  9.000E+00
       5     1     1     2   501     0 -4.292824588E-01  3.623279149E-02 -1.878840494E+00  5.126220620E+00  4.750000000E+00  0.00000E+00  9.000E+00
      -5     1     1     2     0   503 -2.685179872E+00  3.128599386E+01 -3.733259149E+02  3.746742917E+02  4.750000000E+00  0.00000E+00  9.000E+00
      21     1     1     2   502   511  1.040257779E+01 -2.250496451E+00 -4.387292939E+01  4.514545705E+01  9.536743164E-07  0.00000E+00  9.000E+00
#rwgt            1           9   3.8990749262851642E-003          12      233461           0
</event>
<event>
      6   9999  3.45752E-01  3.85919E+00 -1.00000E+00  2.51116E-01
      21    -1     0     0   501   502  0.000000000E+00  0.000000000E+00  1.181872427E+01  1.181872427E+01  0.000000000E+00  0.00000E+00  9.000E+00
      21    -1     0     0   502   512  0.000000000E+00  0.000000000E+00 -1.953212895E+03  1.953212895E+03  0.000000000E+00  0.00000E+00  9.000E+00
      25     1     1     2     0     0  4.967829342E+01 -5.093834203E+01 -1.034137932E+03  1.044092689E+03  1.250025301E+02  0.00000E+00  9.000E+00
       5     1     1     2   501     0 -1.187509607E+00 -1.516699437E+00  3.802670566E+00  6.382269164E+00  4.750000000E+00  0.00000E+00  9.000E+00
      -5     1     1     2     0   503 -5.216597998E+01  5.363243989E+01 -8.211933690E+02  8.246082948E+02  4.750000000E+00  0.00000E+00  9.000E+00
      21     1     1     2   503   512  3.675196164E+00 -1.177398426E+00 -8.986553987E+01  8.994836625E+01  2.132480600E-06  0.00000E+00  9.000E+00
#rwgt            1           9   4.2951259083615048               12      236317           0
</event>
<event>
      6   9999  3.45752E-01  2.73541E+00 -1.00000E+00  2.87838E-01
      21    -1     0     0   501   511  0.000000000E+00  0.000000000E+00  9.500862098E+02  9.500862098E+02  0.000000000E+00  0.00000E+00  9.000E+00
      21    -1     0     0   502   503  0.000000000E+00  0.000000000E+00 -1.627231334E+01  1.627231334E+01  0.000000000E+00  0.00000E+00  9.000E+00
      25     1     1     2     0     0 -3.925221818E+00 -2.284120209E+00  2.350775860E+02  2.662765877E+02  1.249844996E+02  0.00000E+00  9.000E+00
       5     1     1     2   501     0  1.507256037E+00  4.127965240E+00  5.412904773E+02  5.413291561E+02  4.750000000E+00  0.00000E+00  9.000E+00
      -5     1     1     2     0   503  2.539681962E+00  8.888523090E-01  1.098816410E+01  1.226956777E+01  4.750000000E+00  0.00000E+00  9.000E+00
      21     1     1     2   502   511 -1.217161797E-01 -2.732697340E+00  1.464576692E+02  1.464832117E+02  1.907348633E-06  0.00000E+00  9.000E+00
#rwgt            1           9   4.2666234141470589               12      242512           0
</event>
<event>
      6   9999 -3.45752E-01  1.25977E+01 -1.00000E+00  1.77214E-01
      21    -1     0     0   501   512  0.000000000E+00  0.000000000E+00  1.740304776E+01  1.740304776E+01  0.000000000E+00  0.00000E+00  9.000E+00
      21    -1     0     0   502   503  0.000000000E+00  0.000000000E+00 -4.394712203E+02  4.394712203E+02  0.000000000E+00  0.00000E+00  9.000E+00
      25     1     1     2     0     0 -3.086754741E+00  5.655817897E+00 -3.656550717E+02  3.864850069E+02  1.250020509E+02  0.00000E+00  9.000E+00
       5     1     1     2   501     0 -1.709508018E+00 -2.254307332E-01 -5.843706782E-01  5.086966264E+00  4.750000000E+00  0.00000E+00  9.000E+00
      -5     1     1     2     0   503 -7.585099222E+00 -7.754816097E+00 -5.006905748E+01  5.145040252E+01  4.750000000E+00  0.00000E+00  9.000E+00
      21     1     1     2   502   512  1.238136198E+01  2.324428933E+00 -5.759672693E+00  1.385189243E+01  4.842304232E-07  0.00000E+00  9.000E+00
#rwgt            1           9  -4.0566955305152266E-002          12      249297           0
</event>
<event>
      6   9999  3.45752E-01  2.55573E+01 -1.00000E+00  1.52486E-01
      21    -1     0     0   502   511  0.000000000E+00  0.000000000E+00  1.243708832E+01  1.243708832E+01  0.000000000E+00  0.00000E+00  9.000E+00
      21    -1     0     0   501   502  0.000000000E+00  0.000000000E+00 -1.290009624E+03  1.290009624E+03  0.000000000E+00  0.00000E+00  9.000E+00
      25     1     1     2     0     0  1.793854609E+01  6.388457294E+01 -1.098176257E+03  1.107258694E+03  1.250107700E+02  0.00000E+00  9.000E+00
       5     1     1     2   501     0  4.060113700E-01  1.927982247E+00 -4.278613073E+00  6.689618121E+00  4.750000000E+00  0.00000E+00  9.000E+00
      -5     1     1     2     0   503 -1.542753706E+01 -4.042224902E+01 -9.731319584E+01  1.066038822E+02  4.750000000E+00  0.00000E+00  9.000E+00
      21     1     1     2   503   511 -2.917020400E+00 -2.539030616E+01 -7.780446961E+01  8.189451841E+01  1.907348633E-06  0.00000E+00  9.000E+00
#rwgt            1           9   5.2996676087839339E-003          12      251577           0
</event>
<event>
      6   9999  3.45752E-01  9.87277E+00 -1.00000E+00  1.87781E-01
      21    -1     0     0   501   502  0.000000000E+00  0.000000000E+00  2.743680376E+01  2.743680376E+01  0.000000000E+00  0.00000E+00  9.000E+00
      21    -1     0     0   502   512  0.000000000E+00  0.000000000E+00 -8.884970235E+02  8.884970235E+02  0.000000000E+00  0.00000E+00  9.000E+00
      25     1     1     2     0     0 -8.476075004E+00  5.004890044E+01 -3.132919171E+02  3.411053621E+02  1.249972257E+02  0.00000E+00  9.000E+00
       5     1     1     2   501     0 -1.469674266E-01 -1.252061212E+00  1.187783453E+01  1.285436540E+01  4.750000000E+00  0.00000E+00  9.000E+00
      -5     1     1     2     0   503  1.027963030E+01 -3.906404437E+01 -4.795765774E+02  4.812981679E+02  4.750000000E+00  0.00000E+00  9.000E+00
      21     1     1     2   503   512 -1.656587866E+00 -9.732794857E+00 -8.006955977E+01  8.067593186E+01  1.348699152E-06  0.00000E+00  9.000E+00
#rwgt            1           9   5.8265622770422016               12      252994           0
</event>
<event>
      6   9999  3.45752E-01  6.06496E+00 -1.00000E+00  2.13409E-01
      21    -1     0     0   501   511  0.000000000E+00  0.000000000E+00  8.927449968E+01  8.927449968E+01  0.000000000E+00  0.00000E+00  9.000E+00
      21    -1     0     0   502   503  0.000000000E+00  0.000000000E+00 -1.462848425E+02  1.462848425E+02  0.000000000E+00  0.00000E+00  9.000E+00
      25     1     1     2     0     0  1.145519755E+01  5.297049369E+00 -1.135783938E+02  1.693622905E+02  1.249970145E+02  0.00000E+00  9.000E+00
       5     1     1     2   501     0 -1.078416093E-01 -2.573038588E+00  4.338297969E+01  4.371816080E+01  4.750000000E+00  0.00000E+00  9.000E+00
      -5     1     1     2     0   503 -5.283211754E+00 -2.823540152E+00 -3.437559772E-01  7.652801683E+00  4.750000000E+00  0.00000E+00  9.000E+00
      21     1     1     2   502   511 -6.064144185E+00  9.952937097E-02  1.352882732E+01  1.482608915E+01  0.000000000E+00  0.00000E+00  9.000E+00
#rwgt            1           9   2.7507468955894643               12      256347           0
</event>
<event>
      6   9999  3.45752E-01  5.27189E+00 -1.00000E+00  2.22195E-01
      21    -1     0     0   501   512  0.000000000E+00  0.000000000E+00  6.082993554E+01  6.082993554E+01  0.000000000E+00  0.00000E+00  9.000E+00
      21    -1     0     0   502   503  0.000000000E+00  0.000000000E+00 -2.098171904E+02  2.098171904E+02  0.000000000E+00  0.00000E+00  9.000E+00
      25     1     1     2     0     0  5.417191268E+00 -2.134406898E+00 -1.450131210E+02  1.915413195E+02  1.250014807E+02  0.00000E+00  9.000E+00
       5     1     1     2   501     0 -4.468591083E-01 -1.478359102E-01  3.794545003E-01  4.788321651E+00  4.750000000E+00  0.00000E+00  9.000E+00
      -5     1     1     2     0   503 -1.019322457E+01  1.565162114E+00 -3.830854307E+01  3.995570712E+01  4.750000000E+00  0.00000E+00  9.000E+00
      21     1     1     2   502   512  5.222892408E+00  7.170806949E-01  3.395495474E+01  3.436177762E+01  6.743495762E-07  0.00000E+00  9.000E+00
#rwgt            1           9  0.20136581997657318               12      260394           0
</event>
<event>
      6   9999  3.45752E-01  1.00319E+01 -1.00000E+00  1.87048E-01
      21    -1     0     0   501   502  0.000000000E+00  0.000000000E+00  3.176681479E+01  3.176681479E+01  0.000000000E+00  0.00000E+00  9.000E+00
      21    -1     0     0   502   511  0.000000000E+00  0.000000000E+00 -1.292376645E+03  1.292376645E+03  0.000000000E+00  0.00000E+00  9.000E+00
      25     1     1     2     0     0 -1.254917427E+01 -9.020034194E+01 -8.839983322E+02  8.974253914E+02  1.250027931E+02  0.00000E+00  9.000E+00
       5     1     1     2   501     0  1.346439311E+00  1.684617617E+00  1.198097391E+01  1.306740491E+01  4.750000000E+00  0.00000E+00  9.000E+00
      -5     1     1     2     0   503  1.181472174E+00  8.897839018E+01 -1.473580910E+02  1.722077794E+02  4.750000000E+00  0.00000E+00  9.000E+00
      21     1     1     2   503   511  1.002126279E+01 -4.626658509E-01 -2.412343806E+02  2.414428838E+02  2.697398305E-06  0.00000E+00  9.000E+00
#rwgt            1           9   1.8721790775734196E-005          12      263813           0
</event>
<event>
      6   9999  3.45752E-01  3.57059E+01 -1.00000E+00  1.43107E-01
      21    -1     0     0   501   512  0.000000000E+00  0.000000000E+00  4.326231755E+01  4.326231755E+01  0.000000000E+00  0.00000E+00  9.000E+00
      21    -1     0     0   502   503  0.000000000E+00  0.000000000E+00 -6.959124333E+02  6.959124333E+02  0.000000000E+00  0.00000E+00  9.000E+00
      25     1     1     2     0     0  1.955309083E+01 -3.608065747E+01 -5.484848964E+02  5.640441801E+02  1.250040733E+02  0.00000E+00  9.000E+00
       5     1     1     2   501     0 -7.447278961E+00  3.222495347E+00  1.665039121E+01  1.912183222E+01  4.750000000E+00  0.00000E+00  9.000E+00
      -5     1     1     2     0   503 -4.705430718E+01  4.017333718E+01 -6.600439139E+01  9.059330564E+01  4.750000000E+00  0.00000E+00  9.000E+00
      21     1     1     2   502   512  3.494849532E+01 -7.315175061E+00 -5.481121915E+01  6.541543286E+01  6.743495762E-07  0.00000E+00  9.000E+00
#rwgt            1           9   6.2775170464495899E-004          12      267123           0
</event>
<event>
      6   9999  3.45752E-01  7.89766E+00 -1.00000E+00  1.98680E-01
      21    -1     0     0   511   503  0.000000000E+00  0.000000000E+00  5.586710100E+01  5.586710100E+01  0.000000000E+00  0.00000E+00  9.000E+00
      21    -1     0     0   501   502  0.000000000E+00  0.000000000E+00 -1.301329915E+03  1.301329915E+03  0.000000000E+00  0.00000E+00  9.000E+00
      25     1     1     2     0     0  6.672650373E+00 -7.812168133E+01 -1.239288264E+03  1.248041841E+03  1.250020555E+02  0.00000E+00  9.000E+00
       5     1     1     2   501     0  6.570665294E+00  1.001848711E+01 -2.828645208E+01  3.108423391E+01  4.750000000E+00  0.00000E+00  9.000E+00
      -5     1     1     2     0   503 -6.008324522E+00  6.493649332E+01  1.423819199E+01  6.691888179E+01  4.750000000E+00  0.00000E+00  9.000E+00
      21     1     1     2   511   502 -7.234991145E+00  3.166700892E+00  7.873710825E+00  1.115205871E+01  6.364034565E-07  0.00000E+00  9.000E+00
#rwgt            1           9  0.32086082664259180               12      268793           0
</event>
<event>
      6   9999  3.45752E-01  4.00168E+00 -1.00000E+00  2.47812E-01
      21    -1     0     0   501   512  0.000000000E+00  0.000000000E+00  5.654325048E+02  5.654325048E+02  0.000000000E+00  0.00000E+00  9.000E+00
      21    -1     0     0   502   503  0.000000000E+00  0.000000000E+00 -1.648116985E+02  1.648116985E+02  0.000000000E+00  0.00000E+00  9.000E+00
      25     1     1     2     0     0 -7.790974851E+00 -1.411101241E+01 -1.293230893E+02  1.805830108E+02  1.250037696E+02  0.00000E+00  9.000E+00
       5     1     1     2   501     0  1.152658732E+01  7.852297656E+00  5.154405724E+02  5.156511098E+02  4.750000000E+00  0.00000E+00  9.000E+00
      -5     1     1     2     0   503 -2.247105467E+00  2.544180707E+00 -8.692769700E+00  1.047134583E+01  4.750000000E+00  0.00000E+00  9.000E+00
      21     1     1     2   502   512 -1.488507003E+00  3.714534052E+00  2.319609285E+01  2.353873701E+01  0.000000000E+00  0.00000E+00  9.000E+00
#rwgt            1           9   1.0713125650041162E-003          12      273185           0
</event>
<event>
      6   9999 -3.45752E-01  1.89356E+01 -1.00000E+00  1.62045E-01
      21    -1     0     0   511   502  0.000000000E+00  0.000000000E+00  6.780692450E+01  6.780692450E+01  0.000000000E+00  0.00000E+00  9.000E+00
      21    -1     0     0   502   503  0.000000000E+00  0.000000000E+00 -1.056185889E+03  1.056185889E+03  0.000000000E+00  0.00000E+00  9.000E+00
      25     1     1     2     0     0  8.513494401E+00  3.120933736E+01 -3.079263177E+02  3.339008069E+02  1.249985176E+02  0.00000E+00  9.000E+00
       5     1     1     2   501     0 -2.885903344E+00  4.649575329E+00  9.698615979E+00  1.210671883E+01  4.750000000E+00  0.00000E+00  9.000E+00
      -5     1     1     2     0   503 -2.473668650E+00 -1.718777042E+01 -7.319113159E+02  7.321326897E+02  4.750000000E+00  0.00000E+00  9.000E+00
      21     1     1     2   511   501 -3.153922407E+00 -1.867114226E+01  4.176005272E+01  4.585259843E+01  1.651812370E-06  0.00000E+00  9.000E+00
#rwgt            1           9  -1.6920938587048416E-003          12      280793           0
</event>
<event>
      6   9999 -3.45752E-01  3.09467E+00 -1.00000E+00  2.73430E-01
      21    -1     0     0   512   502  0.000000000E+00  0.000000000E+00  3.029804635E+02  3.029804635E+02  0.000000000E+00  0.00000E+00  9.000E+00
      21    -1     0     0   502   503  0.000000000E+00  0.000000000E+00 -9.546275545E+02  9.546275545E+02  0.000000000E+00  0.00000E+00  9.000E+00
      25     1     1     2     0     0 -3.974480897E+00 -4.612421750E+00 -9.434848057E+02  9.517478349E+02  1.249931668E+02  0.00000E+00  9.000E+00
       5     1     1     2   501     0  3.564617171E+00 -2.485273556E-01  1.082559524E+01  1.235007181E+01  4.750000000E+00  0.00000E+00  9.000E+00
      -5     1     1     2     0   503  3.499652539E+00  4.687282885E+00 -3.965944171E+00  8.515245264E+00  4.750000000E+00  0.00000E+00  9.000E+00
      21     1     1     2   512   501 -3.089788813E+00  1.736662212E-01  2.849780635E+02  2.849948660E+02  5.394796609E-06  0.00000E+00  9.000E+00
#rwgt            1           9  -6.2799076684560008E-004          12      282667           0
</event>
<event>
      6   9999  3.45752E-01  3.30281E+01 -1.00000E+00  1.45186E-01
      21    -1     0     0   501   502  0.000000000E+00  0.000000000E+00  6.371613656E+01  6.371613656E+01  0.000000000E+00  0.00000E+00  9.000E+00
      21    -1     0     0   511   503  0.000000000E+00  0.000000000E+00 -1.740697488E+03  1.740697488E+03  0.000000000E+00  0.00000E+00  9.000E+00
      25     1     1     2     0     0 -4.692844318E+01  1.202679806E+01 -1.177663586E+03  1.185269100E+03  1.249975795E+02  0.00000E+00  9.000E+00
       5     1     1     2   501     0 -6.509189117E+00  1.172923526E+00  5.592509893E+01  5.651481649E+01  4.750000000E+00  0.00000E+00  9.000E+00
      -5     1     1     2     0   503  3.449794082E+01 -4.025783698E+01 -2.499217650E+02  2.555274006E+02  4.750000000E+00  0.00000E+00  9.000E+00
      21     1     1     2   511   502  1.893969148E+01  2.705811539E+01 -3.053211001E+02  3.071023081E+02  5.394796609E-06  0.00000E+00  9.000E+00
#rwgt            1           9   1.7721381264676245E-004          12      288932           0
</event>
<event>
      6   9999  3.45752E-01  2.64535E+01 -1.00000E+00  1.51461E-01
      21    -1     0     0   512   502  0.000000000E+00  0.000000000E+00  1.312075478E+02  1.312075478E+02  0.000000000E+00  0.00000E+00  9.000E+00
      21    -1     0     0   502   503  0.000000000E+00  0.000000000E+00 -7.177565367E+02  7.177565367E+02  0.000000000E+00  0.00000E+00  9.000E+00
      25     1     1     2     0     0 -1.655772254E+01  8.654305023E+00 -6.279624158E+02  6.405649972E+02  1.250506490E+02  0.00000E+00  9.000E+00
       5     1     1     2   501     0 -2.845246535E+00 -1.628797180E+00 -2.884160305E+01  2.941341488E+01  4.750000000E+00  0.00000E+00  9.000E+00
      -5     1     1     2     0   503 -4.726295696E-01  1.043153044E+01 -5.233314689E+01  5.357574982E+01  4.750000000E+00  0.00000E+00  9.000E+00
      21     1     1     2   512   501  1.987559864E+01 -1.745703828E+01  1.225881768E+02  1.254099226E+02  3.814697266E-06  0.00000E+00  9.000E+00
#rwgt            1           9  0.41264688246567216               12      290803           0
</event>
<event>
      6   9999  3.45752E-01  1.09760E+02 -1.00000E+00  1.18741E-01
      21    -1     0     0   511   503  0.000000000E+00  0.000000000E+00  3.916969346E+01  3.916969346E+01  0.000000000E+00  0.00000E+00  9.000E+00
      21    -1     0     0   501   502  0.000000000E+00  0.000000000E+00 -1.386310567E+03  1.386310567E+03  0.000000000E+00  0.00000E+00  9.000E+00
      25     1     1     2     0     0 -1.380754340E+02  1.226688204E+02 -7.738184292E+02  8.053139386E+02  1.249924533E+02  0.00000E+00  9.000E+00
       5     1     1     2   501     0  3.564770916E+01 -8.850757463E+01 -3.012722420E+02  3.160567611E+02  4.750000000E+00  0.00000E+00  9.000E+00
      -5     1     1     2     0   503 -6.672647677E+00 -2.215038312E+01 -2.881286253E+01  3.725462718E+01  4.750000000E+00  0.00000E+00  9.000E+00
      21     1     1     2   511   502  1.091003725E+02 -1.201086261E+01 -2.432373398E+02  2.668549336E+02  5.394796609E-06  0.00000E+00  9.000E+00
#rwgt            1           9   8.1699584919527973E-002          12      291700           0
</event>
<event>
      6   9999  3.45752E-01  2.29876E+01 -1.00000E+00  1.55728E-01
      21    -1     0     0   512   502  0.000000000E+00  0.000000000E+00  6.331157912E+01  6.331157912E+01  0.000000000E+00  0.00000E+00  9.000E+00
      21    -1     0     0   502   503  0.000000000E+00  0.000000000E+00 -1.337606613E+02  1.337606613E+02  0.000000000E+00  0.00000E+00  9.000E+00
      25     1     1     2     0     0 -2.086297897E+01 -1.544854479E+01 -9.100414529E+01  1.567858445E+02  1.250045005E+02  0.00000E+00  9.000E+00
       5     1     1     2   501     0 -7.477645438E-01 -1.165843414E+00  3.792035352E+00  6.233809011E+00  4.750000000E+00  0.00000E+00  9.000E+00
      -5     1     1     2     0   503  4.240586884E+00  1.557582849E+00  2.598938227E+00  7.051639622E+00  4.750000000E+00  0.00000E+00  9.000E+00
      21     1     1     2   512   501  1.737015663E+01  1.505680535E+01  1.416408948E+01  2.700094738E+01  3.371747881E-07  0.00000E+00  9.000E+00
#rwgt            1           9   3.0271322088901852E-003          12      292174           0
</event>
<event>
      6   9999  3.45752E-01  1.01711E+01 -1.00000E+00  1.86421E-01
      21    -1     0     0   501   502  0.000000000E+00  0.000000000E+00  1.631193387E+01  1.631193387E+01  0.000000000E+00  0.00000E+00  9.000E+00
      21    -1     0     0   511   503  0.000000000E+00  0.000000000E+00 -9.515677011E+02  9.515677011E+02  0.000000000E+00  0.00000E+00  9.000E+00
      25     1     1     2     0     0  1.782232398E+01 -2.481313930E+01 -6.738103484E+02  6.859863039E+02  1.249939856E+02  0.00000E+00  9.000E+00
       5     1     1     2   501     0 -1.223371626E+00  1.392361909E+00  7.989057410E+00  9.477491658E+00  4.750000000E+00  0.00000E+00  9.000E+00
      -5     1     1     2     0   503 -2.437101906E+01  1.685977578E+01 -1.987163862E+02  2.009700556E+02  4.750000000E+00  0.00000E+00  9.000E+00
      21     1     1     2   511   502  7.772066705E+00  6.561001613E+00 -7.071809001E+01  7.144578376E+01  9.536743164E-07  0.00000E+00  9.000E+00
#rwgt            1           9   5.8344625350937966E-004          12      293404           0
</event>
<event>
      6   9999  3.45752E-01  7.38679E+00 -1.00000E+00  2.02206E-01
      21    -1     0     0   512   502  0.000000000E+00  0.000000000E+00  1.545488619E+02  1.545488619E+02  0.000000000E+00  0.00000E+00  9.000E+00
      21    -1     0     0   502   503  0.000000000E+00  0.000000000E+00 -1.136543638E+03  1.136543638E+03  0.000000000E+00  0.00000E+00  9.000E+00
      25     1     1     2     0     0 -1.777383040E+01  8.679901600E+00 -3.302831891E+02  3.537052294E+02  1.250166172E+02  0.00000E+00  9.000E+00
       5     1     1     2   501     0 -2.390907780E+00 -1.756971989E+01  1.300621898E+02  1.313512360E+02  4.750000000E+00  0.00000E+00  9.000E+00
      -5     1     1     2     0   503  1.344863484E+01  1.196529481E+01 -7.926609079E+02  7.928795063E+02  4.750000000E+00  0.00000E+00  9.000E+00
      21     1     1     2   512   501  6.716103348E+00 -3.075476527E+00  1.088713135E+01  1.315652801E+01  4.298152060E-07  0.00000E+00  9.000E+00
#rwgt            1           9   1.6389594461388868E-002          12      295996           0
</event>
<event>
      6   9999  3.45752E-01  3.59761E+01 -1.00000E+00  1.42910E-01
      21    -1     0     0   501   511  0.000000000E+00  0.000000000E+00  2.344014885E+03  2.344014885E+03  0.000000000E+00  0.00000E+00  9.000E+00
      21    -1     0     0   502   503  0.000000000E+00  0.000000000E+00 -1.220911510E+02  1.220911510E+02  0.000000000E+00  0.00000E+00  9.000E+00
      25     1     1     2     0     0  7.687185897E+01 -5.481211468E+01  3.029309279E+02  3.410348276E+02  1.249958238E+02  0.00000E+00  9.000E+00
       5     1     1     2   501     0  1.446113150E+01  1.719257825E+01  6.216630547E+02  6.220869916E+02  4.750000000E+00  0.00000E+00  9.000E+00
      -5     1     1     2     0   503 -6.348417728E+01  6.039496893E+01 -8.382866862E+01  1.213573287E+02  4.750000000E+00  0.00000E+00  9.000E+00
      21     1     1     2   502   511 -2.784881319E+01 -2.277543250E+01  1.381158420E+03  1.381626888E+03  1.525878906E-05  0.00000E+00  9.000E+00
#rwgt            1           9   3.9612393177038213E-002          12      301715           0
</event>
<event>
      6   9999  3.45752E-01  6.39940E+01 -1.00000E+00  1.29293E-01
      21    -1     0     0   501   502  0.000000000E+00  0.000000000E+00  2.149656916E+02  2.149656916E+02  0.000000000E+00  0.00000E+00  9.000E+00
      21    -1     0     0   502   512  0.000000000E+00  0.000000000E+00 -2.594519669E+03  2.594519669E+03  0.000000000E+00  0.00000E+00  9.000E+00
      25     1     1     2     0     0 -6.728160098E+01 -2.822932854E+01 -1.054913143E+03  1.064794763E+03  1.249897598E+02  0.00000E+00  9.000E+00
       5     1     1     2   501     0  3.197787602E+00 -2.317476827E-02  2.066900039E+02  2.067693077E+02  4.750000000E+00  0.00000E+00  9.000E+00
      -5     1     1     2     0   503  1.271055154E+01  6.641038880E+01 -1.073740140E+03  1.075877478E+03  4.750000000E+00  0.00000E+00  9.000E+00
      21     1     1     2   503   512  5.137326184E+01 -3.815788549E+01 -4.575906985E+02  4.620438113E+02  5.394796609E-06  0.00000E+00  9.000E+00
#rwgt            1           9   1.9288651050721736E-004          12      303676           0
</event>
<event>
      6   9999  3.45752E-01  3.53104E+00 -1.00000E+00  2.59620E-01
      21    -1     0     0   501   502  0.000000000E+00  0.000000000E+00  1.387834657E+01  1.387834657E+01  0.000000000E+00  0.00000E+00  9.000E+00
      21    -1     0     0   502   511  0.000000000E+00  0.000000000E+00 -9.247031099E+02  9.247031099E+02  0.000000000E+00  0.00000E+00  9.000E+00
      25     1     1     2     0     0  1.295627000E+00  1.430679510E+01 -7.147444711E+02  7.257344263E+02  1.249977416E+02  0.00000E+00  9.000E+00
       5     1     1     2   501     0 -3.140321895E+00 -7.837940819E-01  7.097773103E+00  9.133281874E+00  4.750000000E+00  0.00000E+00  9.000E+00
      -5     1     1     2     0   503  8.350821136E-01 -1.013937017E+01 -1.523530107E+02  1.527661827E+02  4.750000000E+00  0.00000E+00  9.000E+00
      21     1     1     2   503   511  1.009612781E+00 -3.383630851E+00 -5.082505459E+01  5.094756569E+01  6.743495762E-07  0.00000E+00  9.000E+00
#rwgt            1           9   5.6321316024329466E-005          12      305251           0
</event>
<event>
      6   9999  3.45752E-01  4.70419E+00 -1.00000E+00  2.34122E-01
      21    -1     0     0   501   512  0.000000000E+00  0.000000000E+00  1.088404777E+01  1.088404777E+01  0.000000000E+00  0.00000E+00  9.000E+00
      21    -1     0     0   502   503  0.000000000E+00  0.000000000E+00 -7.333236511E+02  7.333236511E+02  0.000000000E+00  0.00000E+00  9.000E+00
      25     1     1     2     0     0 -1.641128885E+01 -9.565531290E+00 -6.141430392E+02  6.270236914E+02  1.250048286E+02  0.00000E+00  9.000E+00
       5     1     1     2   501     0  8.790886855E-01  5.824584650E-01  9.140696339E-03  4.865659085E+00  4.750000000E+00  0.00000E+00  9.000E+00
      -5     1     1     2     0   503  1.411647300E+01  1.346917182E+01 -1.040651904E+02  1.059849978E+02  4.750000000E+00  0.00000E+00  9.000E+00
      21     1     1     2   502   512  1.415727161E+00 -4.486098995E+00 -4.240514442E+00  6.333350639E+00  2.149076030E-07  0.00000E+00  9.000E+00
#rwgt            1           9   7.8142371672269544E-003          12      310906           0
</event>
<event>
      6   9999  3.45752E-01  2.99323E+01 -1.00000E+00  1.47902E-01
      21    -1     0     0   501   511  0.000000000E+00  0.000000000E+00  1.084955509E+01  1.084955509E+01  0.000000000E+00  0.00000E+00  9.000E+00
      21    -1     0     0   502   503  0.000000000E+00  0.000000000E+00 -1.384197673E+03  1.384197673E+03  0.000000000E+00  0.00000E+00  9.000E+00
      25     1     1     2     0     0  1.267311191E+01  2.876466864E+01 -4.893900183E+02  5.060783693E+02  1.249988479E+02  0.00000E+00  9.000E+00
       5     1     1     2   501     0 -8.263186970E-01  6.274967503E-01 -1.066382673E+01  1.171990850E+01  4.750000000E+00  0.00000E+00  9.000E+00
      -5     1     1     2     0   503 -3.013601358E+01 -5.697318859E+00 -7.393442840E+02  7.399953862E+02  4.750000000E+00  0.00000E+00  9.000E+00
      21     1     1     2   502   511  1.828922037E+01 -2.369484653E+01 -1.339499889E+02  1.372535641E+02  1.907348633E-06  0.00000E+00  9.000E+00
#rwgt            1           9   1.0279627258817561E-002          12      314851           0
</event>
<event>
      6   9999  3.45752E-01  3.29969E+00 -1.00000E+00  2.66525E-01
      21    -1     0     0   501   512  0.000000000E+00  0.000000000E+00  3.109635672E+02  3.109635672E+02  0.000000000E+00  0.00000E+00  9.000E+00
      21    -1     0     0   502   503  0.000000000E+00  0.000000000E+00 -9.814438651E+02  9.814438651E+02  0.000000000E+00  0.00000E+00  9.000E+00
      25     1     1     2     0     0 -9.901957449E+01  2.498650432E+01 -5.447185050E+02  5.681306360E+02  1.249998733E+02  0.00000E+00  9.000E+00
       5     1     1     2   501     0  1.159097394E-01  5.944055164E-02 -2.617686416E+00  5.425103724E+00  4.750000000E+00  0.00000E+00  9.000E+00
      -5     1     1     2     0   503  1.019756589E+02 -2.384144598E+01 -4.144622433E+02  4.275148689E+02  4.750000000E+00  0.00000E+00  9.000E+00
      21     1     1     2   502   512 -3.071994142E+00 -1.204498893E+00  2.913181368E+02  2.913368237E+02  5.394796609E-06  0.00000E+00  9.000E+00
#rwgt            1           9   2.2145405034086716E-004          12      315713           0
</event>
<event>
      6   9999  3.45752E-01  9.62738E+00 -1.00000E+00  1.88948E-01
      21    -1     0     0   501   502  0.000000000E+00  0.000000000E+00  2.503773406E+02  2.503773406E+02  0.000000000E+00  0.00000E+00  9.000E+00
       2    -1     0     0   502     0  0.000000000E+00  0.000000000E+00 -2.525273890E+03  2.525273890E+03  0.000000000E+00  0.00000E+00  9.000E+00
      25     1     1     2     0     0 -3.115244391E+01  4.180677419E+01 -1.814746555E+02  2.264420245E+02  1.249986350E+02  0.00000E+00  9.000E+00
       5     1     1     2   501     0 -1.724131846E+01 -2.519725398E+01  2.263486026E+02  2.284478432E+02  4.750000000E+00  0.00000E+00  9.000E+00
      -5     1     1     2     0   503  5.676372328E+01 -1.185238979E+01 -1.991859344E+03  1.992708912E+03  4.750000000E+00  0.00000E+00  9.000E+00
       2     1     1     2   503     0 -8.369960906E+00 -4.757130414E+00 -3.279111529E+02  3.280524512E+02  5.394796609E-06  0.00000E+00  9.000E+00
#rwgt            1           9   1.1735935160099964E-005          12      322029           0
</event>
<event>
      6   9999  3.45752E-01  4.34702E+01 -1.00000E+00  1.38122E-01
      21    -1     0     0   501   502  0.000000000E+00  0.000000000E+00  1.173746752E+01  1.173746752E+01  0.000000000E+00  0.00000E+00  9.000E+00
      21    -1     0     0   511   503  0.000000000E+00  0.000000000E+00 -1.368581591E+03  1.368581591E+03  0.000000000E+00  0.00000E+00  9.000E+00
      25     1     1     2     0     0  1.427663479E+01 -2.760021896E+01 -7.807032833E+02  7.912567276E+02  1.249959925E+02  0.00000E+00  9.000E+00
       5     1     1     2   501     0  5.329713811E+00 -7.812879552E+00  6.419749194E-02  1.058364576E+01  4.750000000E+00  0.00000E+00  9.000E+00
      -5     1     1     2     0   503  1.337810818E+00 -2.678903323E+00 -2.828470921E+01  2.883666999E+01  4.750000000E+00  0.00000E+00  9.000E+00
      21     1     1     2   511   502 -2.094415941E+01  3.809200184E+01 -5.479203289E+02  5.496420156E+02  0.000000000E+00  0.00000E+00  9.000E+00
#rwgt            1           9   4.5905875275206845E-004          12      327838           0
</event>
<event>
      6   9999 -3.45752E-01  5.23734E+00 -1.00000E+00  2.22626E-01
      21    -1     0     0   501   502  0.000000000E+00  0.000000000E+00  3.276453172E+01  3.276453172E+01  0.000000000E+00  0.00000E+00  9.000E+00
      21    -1     0     0   512   503  0.000000000E+00  0.000000000E+00 -1.567475556E+03  1.567475556E+03  0.000000000E+00  0.00000E+00  9.000E+00
      25     1     1     2     0     0  1.216290268E+02 -6.122752918E+01 -3.722676271E+02  4.156344609E+02  1.250055534E+02  0.00000E+00  9.000E+00
       5     1     1     2   501     0 -1.038530297E+00 -4.933724997E-01  4.057498177E+00  6.351988118E+00  4.750000000E+00  0.00000E+00  9.000E+00
      -5     1     1     2     0   503 -1.168269535E+02  6.536307708E+01 -7.597085901E+02  7.714276203E+02  4.750000000E+00  0.00000E+00  9.000E+00
      21     1     1     2   512   502 -3.763543031E+00 -3.642175394E+00 -4.067923057E+02  4.068260189E+02  5.394796609E-06  0.00000E+00  9.000E+00
#rwgt            1           9  -5.8313210358229225E-004          12      328931           0
</event>
<event>
      6   9999  3.45752E-01  1.38994E+01 -1.00000E+00  1.73290E-01
      21    -1     0     0   501   502  0.000000000E+00  0.000000000E+00  2.999832968E+03  2.999832968E+03  0.000000000E+00  0.00000E+00  9.000E+00
      21    -1     0     0   502   511  0.000000000E+00  0.000000000E+00 -3.198084960E+00  3.198084960E+00  0.000000000E+00  0.00000E+00  9.000E+00
      25     1     1     2     0     0 -2.020916127E+01  6.385727009E+00  2.387640254E+03  2.391004297E+03  1.250055236E+02  0.00000E+00  9.000E+00
       5     1     1     2   501     0  2.013093909E+01  2.982919595E+00  4.233906331E+02  4.239060547E+02  4.750000000E+00  0.00000E+00  9.000E+00
      -5     1     1     2     0   503 -6.656713699E+00  2.790106147E+00  1.439453129E+02  1.442044110E+02  4.750000000E+00  0.00000E+00  9.000E+00
      21     1     1     2   503   511  6.734935886E+00 -1.215875275E+01  4.165868319E+01  4.391628986E+01  1.846782373E-06  0.00000E+00  9.000E+00
#rwgt            1           9  0.26355085337395406               12      334529           0
</event>
<event>
      6   9999  3.45752E-01  3.31376E+00 -1.00000E+00  2.66080E-01
      21    -1     0     0   501   502  0.000000000E+00  0.000000000E+00  1.876790312E+03  1.876790312E+03  0.000000000E+00  0.00000E+00  9.000E+00
      21    -1     0     0   502   512  0.000000000E+00  0.000000000E+00 -4.391302173E+00  4.391302173E+00  0.000000000E+00  0.00000E+00  9.000E+00
      25     1     1     2     0     0 -5.340568857E+00 -1.098279219E+01  1.098940596E+03  1.106094515E+03  1.250020019E+02  0.00000E+00  9.000E+00
       5     1     1     2   501     0  5.465158493E-01 -5.787719813E-01  4.441399575E+02  4.441660703E+02  4.750000000E+00  0.00000E+00  9.000E+00
      -5     1     1     2     0   503  1.713106090E+00  1.034141730E+01  3.260952288E+02  3.262982384E+02  4.750000000E+00  0.00000E+00  9.000E+00
      21     1     1     2   503   512  3.080946918E+00  1.220146873E+00  3.223228174E+00  4.622790517E+00  1.931411236E-07  0.00000E+00  9.000E+00
#rwgt            1           9   2.3313371454015085E-004          12      336000           0
</event>
<event>
      6   9999  3.45752E-01  2.91189E+01 -1.00000E+00  1.48680E-01
      21    -1     0     0   501   511  0.000000000E+00  0.000000000E+00  4.734561268E+01  4.734561268E+01  0.000000000E+00  0.00000E+00  9.000E+00
      21    -1     0     0   502   503  0.000000000E+00  0.000000000E+00 -8.722833293E+02  8.722833293E+02  0.000000000E+00  0.00000E+00  9.000E+00
      25     1     1     2     0     0  2.124613384E+01  6.684680966E+01 -6.305028971E+02  6.465910911E+02  1.250049663E+02  0.00000E+00  9.000E+00
       5     1     1     2   501     0 -7.136847182E+00 -2.813584141E+01 -8.320486451E+01  8.825062117E+01  4.750000000E+00  0.00000E+00  9.000E+00
      -5     1     1     2     0   503  1.262265900E+01 -2.716471448E+01 -1.403598346E+02  1.435990909E+02  4.750000000E+00  0.00000E+00  9.000E+00
      21     1     1     2   502   511 -2.673194565E+01 -1.154625377E+01  2.912987962E+01  4.118813884E+01  2.185142372E-06  0.00000E+00  9.000E+00
#rwgt            1           9   3.1595253006540787E-003          12      341422           0
</event>
<event>
      6   9999  3.45752E-01  6.61962E+00 -1.00000E+00  2.08280E-01
      21    -1     0     0   501   502  0.000000000E+00  0.000000000E+00  3.267766976E+03  3.267766976E+03  0.000000000E+00  0.00000E+00  9.000E+00
      21    -1     0     0   512   503  0.000000000E+00  0.000000000E+00 -5.077275323E+00  5.077275323E+00  0.000000000E+00  0.00000E+00  9.000E+00
      25     1     1     2     0     0 -1.095385999E+00  5.963394940E+01  1.990777320E+03  1.995589222E+03  1.249983807E+02  0.00000E+00  9.000E+00
       5     1     1     2   501     0 -2.614173887E+00 -2.794586204E-01  8.672644475E+02  8.672814402E+02  4.750000000E+00  0.00000E+00  9.000E+00
      -5     1     1     2     0   503 -2.898274478E+00 -5.895965075E+01  3.672553463E+02  3.719995864E+02  4.750000000E+00  0.00000E+00  9.000E+00
      21     1     1     2   512   502  6.607834364E+00 -3.948400272E-01  3.739258621E+01  3.797400265E+01  1.168007728E-06  0.00000E+00  9.000E+00
#rwgt            1           9   1.6780031038742468E-003          12      342421           0
</event>
<event>
      6   9999  3.45752E-01  5.06934E+00 -1.00000E+00  2.24789E-01
       2    -1     0     0   501     0  0.000000000E+00  0.000000000E+00  5.945229810E+02  5.945229810E+02  0.000000000E+00  0.00000E+00  9.000E+00
      21    -1     0     0   502   503  0.000000000E+00  0.000000000E+00 -9.687058449E+02  9.687058449E+02  0.000000000E+00  0.00000E+00  9.000E+00
      25     1     1     2     0     0  5.612862862E+00 -3.068521326E+00 -3.246438459E+02  3.479336115E+02  1.249930050E+02  0.00000E+00  9.000E+00
       5     1     1     2   501     0  9.225269071E-01 -2.233379834E+00  6.212940359E+00  8.185485281E+00  4.750000000E+00  0.00000E+00  9.000E+00
      -5     1     1     2     0   503 -6.902473174E+00  2.458685306E-01 -6.313918621E+02  6.314475043E+02  4.750000000E+00  0.00000E+00  9.000E+00
       2     1     1     2   502     0  3.670834052E-01  5.056032629E+00  5.756399038E+02  5.756622248E+02  7.629394531E-06  0.00000E+00  9.000E+00
#rwgt            1           9   2.1426035324339746E-002          12      346256           0
</event>
<event>
      6   9999  3.45752E-01  1.20104E+01 -1.00000E+00  1.79185E-01
      21    -1     0     0   501   502  0.000000000E+00  0.000000000E+00  5.460599750E+00  5.460599750E+00  0.000000000E+00  0.00000E+00  9.000E+00
      21    -1     0     0   511   503  0.000000000E+00  0.000000000E+00 -2.775247483E+03  2.775247483E+03  0.000000000E+00  0.00000E+00  9.000E+00
      25     1     1     2     0     0 -1.358592052E+01  2.540597190E+01 -1.397425127E+03  1.403300094E+03  1.249965143E+02  0.00000E+00  9.000E+00
       5     1     1     2   501     0 -2.665729754E+00 -1.397359194E+00 -2.173529664E+00  6.028719519E+00  4.750000000E+00  0.00000E+00  9.000E+00
      -5     1     1     2     0   503  4.289097960E+00 -2.293762176E+01 -2.511217520E+02  2.522483453E+02  4.750000000E+00  0.00000E+00  9.000E+00
      21     1     1     2   511   502  1.196255232E+01 -1.070990942E+00 -1.119066474E+03  1.119130924E+03  1.525878906E-05  0.00000E+00  9.000E+00
#rwgt            1           9  0.20605347110409025               12      351213           0
</event>
<event>
      6   9999  3.45752E-01  2.02830E+01 -1.00000E+00  1.59746E-01
      21    -1     0     0   501   512  0.000000000E+00  0.000000000E+00  6.976798001E+01  6.976798001E+01  0.000000000E+00  0.00000E+00  9.000E+00
      21    -1     0     0   502   503  0.000000000E+00  0.000000000E+00 -1.050428503E+02  1.050428503E+02  0.000000000E+00  0.00000E+00  9.000E+00
      25     1     1     2     0     0 -1.912295052E+01 -5.895091300E+00 -4.625241982E+01  1.347759822E+02  1.249993588E+02  0.00000E+00  9.000E+00
       5     1     1     2   501     0 -7.057034871E-01 -2.245278375E-01  1.492160947E+00  5.033634319E+00  4.750000000E+00  0.00000E+00  9.000E+00
      -5     1     1     2     0   503  5.618250181E-03  1.824801227E+00 -7.145225854E+00  8.771925877E+00  4.750000000E+00  0.00000E+00  9.000E+00
      21     1     1     2   502   512  1.982303575E+01  4.294817911E+00  1.663061443E+01  2.622928790E+01  0.000000000E+00  0.00000E+00  9.000E+00
#rwgt            1           9   3.3050161391521800E-004          12      353283           0
</event>
<event>
      6   9999  3.45752E-01  3.26646E+01 -1.00000E+00  1.45487E-01
      21    -1     0     0   501   502  0.000000000E+00  0.000000000E+00  3.425439230E+02  3.425439230E+02  0.000000000E+00  0.00000E+00  9.000E+00
      21    -1     0     0   502   511  0.000000000E+00  0.000000000E+00 -3.652388095E+02  3.652388095E+02  0.000000000E+00  0.00000E+00  9.000E+00
      25     1     1     2     0     0  2.431115434E+01  2.439039624E+01 -1.797582708E+02  2.216416578E+02  1.250042595E+02  0.00000E+00  9.000E+00
       5     1     1     2   501     0 -2.888621726E+00  7.665056456E+00  3.089306148E+02  3.090756938E+02  4.750000000E+00  0.00000E+00  9.000E+00
      -5     1     1     2     0   503  7.448678314E+00 -1.677702326E+01 -1.415439905E+02  1.428083158E+02  4.750000000E+00  0.00000E+00  9.000E+00
      21     1     1     2   503   511 -2.887121092E+01 -1.527842944E+01 -1.032324006E+01  3.425706513E+01  2.920019320E-07  0.00000E+00  9.000E+00
#rwgt            1           9   2.7630174670409933E-004          12      354524           0
</event>
<event>
      6   9999  3.45752E-01  2.70143E+01 -1.00000E+00  1.50845E-01
      21    -1     0     0   512   502  0.000000000E+00  0.000000000E+00  2.148534182E+01  2.148534182E+01  0.000000000E+00  0.00000E+00  9.000E+00
      21    -1     0     0   502   503  0.000000000E+00  0.000000000E+00 -3.209108301E+03  3.209108301E+03  0.000000000E+00  0.00000E+00  9.000E+00
      25     1     1     2     0     0 -9.154160552E+01 -1.045002659E+02 -1.213390039E+03  1.227697135E+03  1.249987861E+02  0.00000E+00  9.000E+00
       5     1     1     2   501     0  2.917270240E+01 -3.910878658E+01 -2.875775055E+02  2.917257753E+02  4.750000000E+00  0.00000E+00  9.000E+00
      -5     1     1     2     0   503  3.571946972E+01  1.391838389E+02 -1.675961114E+03  1.682116596E+03  4.750000000E+00  0.00000E+00  9.000E+00
      21     1     1     2   512   501  2.664943340E+01  4.425213574E+00 -1.069429951E+01  2.905413667E+01  5.331201500E-07  0.00000E+00  9.000E+00
#rwgt            1           9   5.7406848470144545E-002          12      356629           0
</event>
<event>
      6   9999  3.45752E-01  7.87482E+00 -1.00000E+00  1.98830E-01
      21    -1     0     0   511   502  0.000000000E+00  0.000000000E+00  1.236704964E+02  1.236704964E+02  0.000000000E+00  0.00000E+00  9.000E+00
      21    -1     0     0   502   503  0.000000000E+00  0.000000000E+00 -1.339197160E+03  1.339197160E+03  0.000000000E+00  0.00000E+00  9.000E+00
      25     1     1     2     0     0 -4.349413668E+00 -3.533670351E+00 -1.209655998E+03  1.216110071E+03  1.249986731E+02  0.00000E+00  9.000E+00
       5     1     1     2   501     0 -1.975449949E+00  9.226721038E+00  1.194586711E+01  1.594681863E+01  4.750000000E+00  0.00000E+00  9.000E+00
      -5     1     1     2     0   503  2.730001484E+00  1.313352561E+00 -1.241040824E+02  1.242318944E+02  4.750000000E+00  0.00000E+00  9.000E+00
      21     1     1     2   511   501  3.594862133E+00 -7.006403248E+00  1.062875497E+02  1.065788719E+02  4.672030912E-06  0.00000E+00  9.000E+00
#rwgt            1           9  0.26385004720219596               12      358888           0
</event>
<event>
      6   9999  3.45752E-01  5.42596E+01 -1.00000E+00  1.32915E-01
      21    -1     0     0   502   503  0.000000000E+00  0.000000000E+00  5.073371001E+02  5.073371001E+02  0.000000000E+00  0.00000E+00  9.000E+00
      21    -1     0     0   512   502  0.000000000E+00  0.000000000E+00 -1.337773612E+02  1.337773612E+02  0.000000000E+00  0.00000E+00  9.000E+00
      25     1     1     2     0     0  1.238514793E+01 -1.944045441E+01  3.650969671E+02  3.865913501E+02  1.250030139E+02  0.00000E+00  9.000E+00
       5     1     1     2   501     0  7.490519241E+00  4.388365876E+01  6.590070942E+01  7.967025409E+01  4.750000000E+00  0.00000E+00  9.000E+00
      -5     1     1     2     0   503 -1.550707474E+01  2.964028307E+01  4.657398016E+01  5.753880321E+01  4.750000000E+00  0.00000E+00  9.000E+00
      21     1     1     2   512   501 -4.368592431E+00 -5.408348742E+01 -1.040119177E+02  1.173140539E+02  1.348699152E-06  0.00000E+00  9.000E+00
#rwgt            1           9   8.2516664843420337E-004          12      362856           0
</event>
<event>
      6   9999  3.45752E-01  1.93086E+01 -1.00000E+00  1.61385E-01
      21    -1     0     0   501   502  0.000000000E+00  0.000000000E+00  1.252650847E+02  1.252650847E+02  0.000000000E+00  0.00000E+00  9.000E+00
      21    -1     0     0   511   503  0.000000000E+00  0.000000000E+00 -1.940739113E+03  1.940739113E+03  0.000000000E+00  0.00000E+00  9.000E+00
      25     1     1     2     0     0  2.899908609E+02 -3.292794018E+02 -1.130169739E+03  1.218781699E+03  1.250022645E+02  0.00000E+00  9.000E+00
       5     1     1     2   501     0 -2.177838673E+00 -2.154770542E+00  1.374233258E+01  1.485934797E+01  4.750000000E+00  0.00000E+00  9.000E+00
      -5     1     1     2     0   503 -2.809011496E+02  3.134051006E+02 -6.091421811E+02  7.404086522E+02  4.750000000E+00  0.00000E+00  9.000E+00
      21     1     1     2   511   502 -6.911872632E+00  1.802907179E+01 -8.990444096E+01  9.195449917E+01  1.651812370E-06  0.00000E+00  9.000E+00
#rwgt            1           9   5.3748531284553906E-004          12      363432           0
</event>
<event>
      6   9999 -3.45752E-01  3.78922E+00 -1.00000E+00  2.52819E-01
      21    -1     0     0   501   502  0.000000000E+00  0.000000000E+00  7.323631083E+01  7.323631083E+01  0.000000000E+00  0.00000E+00  9.000E+00
      21    -1     0     0   502   512  0.000000000E+00  0.000000000E+00 -2.789737025E+02  2.789737025E+02  0.000000000E+00  0.00000E+00  9.000E+00
      25     1     1     2     0     0  8.456096292E+00 -1.716419224E-01 -2.088719615E+02  2.435645786E+02  1.249986904E+02  0.00000E+00  9.000E+00
       5     1     1     2   501     0 -4.590467517E+00  1.339923957E+00  5.426377696E+01  5.468078070E+01  4.750000000E+00  0.00000E+00  9.000E+00
      -5     1     1     2     0   503 -4.595315408E+00 -4.886579967E+00 -1.139434602E+01  1.404952699E+01  4.750000000E+00  0.00000E+00  9.000E+00
      21     1     1     2   503   512  7.296866323E-01  3.718297933E+00 -3.973486108E+01  3.991512705E+01  0.000000000E+00  0.00000E+00  9.000E+00
#rwgt            1           9  -1.9692373104214571E-004          12      366434           0
</event>
<event>
      6   9999  3.45752E-01  6.79275E+00 -1.00000E+00  2.06816E-01
      21    -1     0     0   511   502  0.000000000E+00  0.000000000E+00  1.771787293E+01  1.771787293E+01  0.000000000E+00  0.00000E+00  9.000E+00
      21    -1     0     0   502   503  0.000000000E+00  0.000000000E+00 -8.782060258E+02  8.782060258E+02  0.000000000E+00  0.00000E+00  9.000E+00
      25     1     1     2     0     0 -1.673198545E+00  1.076557196E+00 -7.977638212E+02  8.075037644E+02  1.250250238E+02  0.00000E+00  9.000E+00
       5     1     1     2   501     0  5.290567679E+00 -2.556085119E+00  7.141489708E+00  1.039649233E+01  4.750000000E+00  0.00000E+00  9.000E+00
      -5     1     1     2     0   503  2.934352089E+00 -3.139098153E-01 -7.092821064E+01  7.114831358E+01  4.750000000E+00  0.00000E+00  9.000E+00
      21     1     1     2   511   501 -6.551721223E+00  1.793437738E+00  1.062389243E+00  6.875328415E+00  1.806669780E-07  0.00000E+00  9.000E+00
#rwgt            1           9   1.5204747249500080E-003          12      372157           0
</event>
<event>
      6   9999  3.45752E-01  7.63711E+00 -1.00000E+00  2.00433E-01
      21    -1     0     0   501   502  0.000000000E+00  0.000000000E+00  1.997491957E+01  1.997491957E+01  0.000000000E+00  0.00000E+00  9.000E+00
      21    -1     0     0   502   512  0.000000000E+00  0.000000000E+00 -9.348141675E+02  9.348141675E+02  0.000000000E+00  0.00000E+00  9.000E+00
      25     1     1     2     0     0 -2.930655492E+01  1.573205530E+01 -6.968319288E+02  7.087362969E+02  1.250041196E+02  0.00000E+00  9.000E+00
       5     1     1     2   501     0  4.632039679E+00  3.389594500E+00  1.147881532E+01  1.368469377E+01  4.750000000E+00  0.00000E+00  9.000E+00
      -5     1     1     2     0   503  2.595796952E+01 -1.159315780E+01 -1.847011559E+02  1.869366122E+02  4.750000000E+00  0.00000E+00  9.000E+00
      21     1     1     2   503   512 -1.283454278E+00 -7.528492004E+00 -4.478497855E+01  4.543148413E+01  6.743495762E-07  0.00000E+00  9.000E+00
#rwgt            1           9   2.1961988908416222E-004          12      375364           0
</event>
<event>
      6   9999 -3.45752E-01  3.84646E+00 -1.00000E+00  2.51422E-01
      21    -1     0     0   511   502  0.000000000E+00  0.000000000E+00  3.378732271E+02  3.378732271E+02  0.000000000E+00  0.00000E+00  9.000E+00
      21    -1     0     0   502   503  0.000000000E+00  0.000000000E+00 -3.016889288E+03  3.016889288E+03  0.000000000E+00  0.00000E+00  9.000E+00
      25     1     1     2     0     0  1.166075803E+01  3.368722805E+01 -2.387166608E+03  2.390703127E+03  1.250048985E+02  0.00000E+00  9.000E+00
       5     1     1     2   501     0 -1.249289032E+01  1.444439282E+01  5.365363899E+01  5.714882562E+01  4.750000000E+00  0.00000E+00  9.000E+00
      -5     1     1     2     0   503  1.787891441E+00 -5.185744536E+01 -6.251096884E+02  6.272775113E+02  4.750000000E+00  0.00000E+00  9.000E+00
      21     1     1     2   511   501 -9.557591571E-01  3.725824490E+00  2.796065958E+02  2.796330518E+02  5.394796609E-06  0.00000E+00  9.000E+00
#rwgt            1           9  -6.1817963047004537E-004          12      378894           0
</event>
<event>
      6   9999  3.45752E-01  2.53896E+00 -1.00000E+00  2.97348E-01
      21    -1     0     0   501   502  0.000000000E+00  0.000000000E+00  1.126646500E+01  1.126646500E+01  0.000000000E+00  0.00000E+00  9.000E+00
       1    -1     0     0   502     0  0.000000000E+00  0.000000000E+00 -1.378220081E+03  1.378220081E+03  0.000000000E+00  0.00000E+00  9.000E+00
      25     1     1     2     0     0  5.073584482E+00  2.584713222E+00 -9.126000799E+02  9.211433458E+02  1.250349380E+02  0.00000E+00  9.000E+00
       5     1     1     2   501     0 -2.632844282E+00 -1.279575448E+00  5.618771242E+00  7.918476659E+00  4.750000000E+00  0.00000E+00  9.000E+00
      -5     1     1     2     0   503  8.473748471E-02 -1.043824006E+00 -2.636195477E+01  2.680693769E+01  4.750000000E+00  0.00000E+00  9.000E+00
       1     1     1     2   503     0 -2.525477685E+00 -2.613137677E-01 -4.336103528E+02  4.336177860E+02  5.394796609E-06  0.00000E+00  9.000E+00
#rwgt            1           9   1.2382142186709275E-004          12      387340           0
</event>
<event>
      6   9999  3.45752E-01  4.10511E+00 -1.00000E+00  2.45541E-01
      21    -1     0     0   501   511  0.000000000E+00  0.000000000E+00  3.650262713E+01  3.650262713E+01  0.000000000E+00  0.00000E+00  9.000E+00
      21    -1     0     0   502   503  0.000000000E+00  0.000000000E+00 -8.132044498E+02  8.132044498E+02  0.000000000E+00  0.00000E+00  9.000E+00
      25     1     1     2     0     0  1.397573118E+01  3.331274278E+00 -6.967361748E+02  7.080098690E+02  1.250210338E+02  0.00000E+00  9.000E+00
       5     1     1     2   501     0  2.406377591E+00  6.153987058E-01  3.374645592E+00  6.334043065E+00  4.750000000E+00  0.00000E+00  9.000E+00
      -5     1     1     2     0   503 -1.500125474E+01 -8.077735585E-02 -1.086192170E+02  1.097530909E+02  4.750000000E+00  0.00000E+00  9.000E+00
      21     1     1     2   502   511 -1.380854037E+00 -3.865895628E+00  2.527892358E+01  2.561007388E+01  1.545128989E-06  0.00000E+00  9.000E+00
#rwgt            1           9   2.4333239057959733E-004          12      394123           0
</event>
<event>
      6   9999  3.45752E-01  2.12482E+01 -1.00000E+00  1.58229E-01
      21    -1     0     0   501   512  0.000000000E+00  0.000000000E+00  1.081390242E+02  1.081390242E+02  0.000000000E+00  0.00000E+00  9.000E+00
      21    -1     0     0   502   503  0.000000000E+00  0.000000000E+00 -1.677365228E+03  1.677365228E+03  0.000000000E+00  0.00000E+00  9.000E+00
      25     1     1     2     0     0  9.453074821E+00  2.270192719E+02 -1.432426231E+03  1.455710530E+03  1.249845171E+02  0.00000E+00  9.000E+00
       5     1     1     2   501     0  1.300984412E+01 -2.003303457E+02 -3.180081767E+01  2.033109883E+02  4.750000000E+00  0.00000E+00  9.000E+00
      -5     1     1     2     0   503 -2.688143666E+01 -5.905249878E+00 -1.010909345E+02  1.048781348E+02  4.750000000E+00  0.00000E+00  9.000E+00
      21     1     1     2   502   512  4.418517721E+00 -2.078367632E+01 -3.908220332E+00  2.160459873E+01  5.179091453E-07  0.00000E+00  9.000E+00
#rwgt            1           9   4.6682189115835113E-004          12      398775           0
</event>
<event>
      6   9999  3.45752E-01  2.06477E+01 -1.00000E+00  1.59161E-01
      21    -1     0     0   502   503  0.000000000E+00  0.000000000E+00  1.718414405E+01  1.718414405E+01  0.000000000E+00  0.00000E+00  9.000E+00
      21    -1     0     0   511   502  0.000000000E+00  0.000000000E+00 -1.765534875E+03  1.765534875E+03  0.000000000E+00  0.00000E+00  9.000E+00
      25     1     1     2     0     0 -1.003154980E+01  2.695806776E+00 -2.229201638E+02  2.557828898E+02  1.249943516E+02  0.00000E+00  9.000E+00
       5     1     1     2   501     0  1.260837247E+01 -2.517912658E+01 -6.709396331E+02  6.715471043E+02  4.750000000E+00  0.00000E+00  9.000E+00
      -5     1     1     2     0   503 -2.974206333E+00  1.839417846E+00 -2.683629476E+01  2.747687351E+01  4.750000000E+00  0.00000E+00  9.000E+00
      21     1     1     2   511   501  3.973836587E-01  2.064390196E+01 -8.276546394E+02  8.279121516E+02  0.000000000E+00  0.00000E+00  9.000E+00
#rwgt            1           9   4.6658062519569436E-002          12      402383           0
</event>
<event>
      6   9999  3.45752E-01  6.22094E+01 -1.00000E+00  1.29899E-01
      21    -1     0     0   501   512  0.000000000E+00  0.000000000E+00  4.073810505E+01  4.073810505E+01  0.000000000E+00  0.00000E+00  9.000E+00
      21    -1     0     0   502   503  0.000000000E+00  0.000000000E+00 -9.879610544E+02  9.879610544E+02  0.000000000E+00  0.00000E+00  9.000E+00
      25     1     1     2     0     0 -2.392318233E+01 -6.053095157E+01 -9.055658316E+02  9.164654234E+02  1.249923285E+02  0.00000E+00  9.000E+00
       5     1     1     2   501     0 -9.871393534E+00  1.147122115E+01  1.104873566E+01  1.933055573E+01  4.750000000E+00  0.00000E+00  9.000E+00
      -5     1     1     2     0   503 -5.897545420E+00  1.158356781E+00 -2.246058313E+01  2.373105827E+01  4.750000000E+00  0.00000E+00  9.000E+00
      21     1     1     2   502   512  3.969212129E+01  4.790137364E+01 -3.024527024E+01  6.917212199E+01  2.236564522E-06  0.00000E+00  9.000E+00
#rwgt            1           9   3.7122508209220433E-003          12      404071           0
</event>
<event>
      6   9999  3.45752E-01  2.17337E+01 -1.00000E+00  1.57503E-01
      21    -1     0     0   501   502  0.000000000E+00  0.000000000E+00  2.631217342E+00  2.631217342E+00  0.000000000E+00  0.00000E+00  9.000E+00
      21    -1     0     0   502   511  0.000000000E+00  0.000000000E+00 -3.214151947E+03  3.214151947E+03  0.000000000E+00  0.00000E+00  9.000E+00
      25     1     1     2     0     0  2.781198358E+01 -1.032641409E+01 -1.872423656E+03  1.876825836E+03  1.249989135E+02  0.00000E+00  9.000E+00
       5     1     1     2   501     0  4.475389003E-01 -1.859919990E-01 -2.809874154E+01  2.850152032E+01  4.750000000E+00  0.00000E+00  9.000E+00
      -5     1     1     2     0   503 -6.586547540E+00  8.889378421E+00 -3.369721752E+02  3.371872077E+02  4.750000000E+00  0.00000E+00  9.000E+00
      21     1     1     2   503   511 -2.167297494E+01  1.623027665E+00 -9.740261567E+02  9.742686006E+02  0.000000000E+00  0.00000E+00  9.000E+00
#rwgt            1           9   57.288723855814936               12      404693           0
</event>
<event>
      6   9999  3.45752E-01  4.41419E+00 -1.00000E+00  2.39314E-01
      21    -1     0     0   512   502  0.000000000E+00  0.000000000E+00  8.542241423E+02  8.542241423E+02  0.000000000E+00  0.00000E+00  9.000E+00
      21    -1     0     0   502   503  0.000000000E+00  0.000000000E+00 -7.755873465E+02  7.755873465E+02  0.000000000E+00  0.00000E+00  9.000E+00
      25     1     1     2     0     0  7.855922741E+00 -6.800142925E+00 -7.400483782E+02  7.506015763E+02  1.249926670E+02  0.00000E+00  9.000E+00
       5     1     1     2   501     0  9.636991353E-01  6.717175807E-01 -3.330697373E-01  4.904422084E+00  4.750000000E+00  0.00000E+00  9.000E+00
      -5     1     1     2     0   503 -5.279032578E+00  3.492280249E+00 -2.707137237E+01  2.820435974E+01  4.750000000E+00  0.00000E+00  9.000E+00
      21     1     1     2   512   501 -3.540589298E+00  2.636145095E+00  8.460896161E+02  8.461011307E+02  1.525878906E-05  0.00000E+00  9.000E+00
#rwgt            1           9   2.4357144143759783E-003          12      405717           0
</event>
<event>
      6   9999  3.45752E-01  2.57509E+01 -1.00000E+00  1.52261E-01
      21    -1     0     0   502   511  0.000000000E+00  0.000000000E+00  3.416807179E+01  3.416807179E+01  0.000000000E+00  0.00000E+00  9.000E+00
      21    -1     0     0   501   502  0.000000000E+00  0.000000000E+00 -1.027372281E+03  1.027372281E+03  0.000000000E+00  0.00000E+00  9.000E+00
      25     1     1     2     0     0 -1.038590980E+02 -4.553614905E+01 -7.177942476E+02  7.373696113E+02  1.250004344E+02  0.00000E+00  9.000E+00
       5     1     1     2   501     0 -3.443315269E-01 -3.129488502E+00 -5.590418151E+01  5.619388110E+01  4.750000000E+00  0.00000E+00  9.000E+00
      -5     1     1     2     0   503  8.596230553E+01  6.684169534E+01 -2.160612810E+02  2.419966319E+02  4.750000000E+00  0.00000E+00  9.000E+00
      21     1     1     2   503   511  1.824112397E+01 -1.817605778E+01 -3.444498643E+00  2.598022808E+01  4.878850443E-07  0.00000E+00  9.000E+00
#rwgt            1           9   3.9734254028311807E-004          12      410078           0
</event>
<event>
      6   9999  3.45752E-01  7.51256E+00 -1.00000E+00  2.01304E-01
      21    -1     0     0   501   502  0.000000000E+00  0.000000000E+00  1.423412006E+02  1.423412006E+02  0.000000000E+00  0.00000E+00  9.000E+00
      21    -1     0     0   502   512  0.000000000E+00  0.000000000E+00 -1.020216013E+02  1.020216013E+02  0.000000000E+00  0.00000E+00  9.000E+00
      25     1     1     2     0     0  3.064282765E+00  6.677542670E+00  8.822924279E+01  1.531928666E+02  1.250187014E+02  0.00000E+00  9.000E+00
       5     1     1     2   501     0 -1.177927090E-01  6.161087201E-01  1.533176377E+01  1.606296814E+01  4.750000000E+00  0.00000E+00  9.000E+00
      -5     1     1     2     0   503  1.985909861E-01 -4.711110706E-01  4.729293374E+00  6.722358205E+00  4.750000000E+00  0.00000E+00  9.000E+00
      21     1     1     2   503   512 -3.145081042E+00 -6.822540320E+00 -6.797070069E+01  6.838460897E+01  9.536743164E-07  0.00000E+00  9.000E+00
#rwgt            1           9   5.5049361140907982E-004          12      411808           0
</event>
<event>
      6   9999  3.45752E-01  1.66621E+01 -1.00000E+00  1.66509E-01
      21    -1     0     0   501   502  0.000000000E+00  0.000000000E+00  2.301944275E+02  2.301944275E+02  0.000000000E+00  0.00000E+00  9.000E+00
      21    -1     0     0   502   511  0.000000000E+00  0.000000000E+00 -3.774255858E+01  3.774255858E+01  0.000000000E+00  0.00000E+00  9.000E+00
      25     1     1     2     0     0  8.038677337E+00  2.329818204E+01  1.004669411E+02  1.622587941E+02  1.250075374E+02  0.00000E+00  9.000E+00
       5     1     1     2   501     0  9.603260880E-01  1.132374249E+00  3.911972727E+01  3.943501057E+01  4.750000000E+00  0.00000E+00  9.000E+00
      -5     1     1     2     0   503  2.062548028E+00 -1.196987330E+01  4.668388132E+01  4.847142712E+01  4.750000000E+00  0.00000E+00  9.000E+00
      21     1     1     2   503   511 -1.106155145E+01 -1.246068299E+01  6.181319186E+00  1.777175422E+01  5.127385418E-07  0.00000E+00  9.000E+00
#rwgt            1           9   2.0663220422512521E-006          12      414457           0
</event>
<event>
      6   9999  3.45752E-01  1.17444E+01 -1.00000E+00  1.80126E-01
      21    -1     0     0   512   502  0.000000000E+00  0.000000000E+00  4.406748330E+02  4.406748330E+02  0.000000000E+00  0.00000E+00  9.000E+00
      21    -1     0     0   502   503  0.000000000E+00  0.000000000E+00 -1.196628259E+03  1.196628259E+03  0.000000000E+00  0.00000E+00  9.000E+00
      25     1     1     2     0     0  2.385766171E+01 -2.895007884E+01 -8.360801048E+02  8.462057720E+02  1.250078870E+02  0.00000E+00  9.000E+00
       5     1     1     2   501     0 -2.437440751E+01 -9.783761456E-01  1.166348630E+02  1.192531875E+02  4.750000000E+00  0.00000E+00  9.000E+00
      -5     1     1     2     0   503 -1.091761433E+01  2.724780796E+01 -3.534430793E+02  3.546917114E+02  4.750000000E+00  0.00000E+00  9.000E+00
      21     1     1     2   512   501  1.143436014E+01  2.680647022E+00  3.169348951E+02  3.171524211E+02  5.394796609E-06  0.00000E+00  9.000E+00
#rwgt            1           9  0.13227791250172932               12      416173           0
</event>
<event>
      6   9999  3.45752E-01  5.48063E+00 -1.00000E+00  2.19686E-01
      21    -1     0     0   511   502  0.000000000E+00  0.000000000E+00  1.489713487E+01  1.489713487E+01  0.000000000E+00  0.00000E+00  9.000E+00
      21    -1     0     0   502   503  0.000000000E+00  0.000000000E+00 -7.073099549E+02  7.073099549E+02  0.000000000E+00  0.00000E+00  9.000E+00
      25     1     1     2     0     0  1.720759080E+01 -6.484705461E+00 -5.146889956E+02  5.299703381E+02  1.250025777E+02  0.00000E+00  9.000E+00
       5     1     1     2   501     0 -1.978647261E+01  1.830124106E+01 -8.682037089E+01  9.103174844E+01  4.750000000E+00  0.00000E+00  9.000E+00
      -5     1     1     2     0   503  5.946164488E+00 -7.492340205E+00 -9.420390275E+01  9.480733003E+01  4.750000000E+00  0.00000E+00  9.000E+00
      21     1     1     2   511   501 -3.367282677E+00 -4.324195393E+00  3.300449188E+00  6.397673270E+00  3.264680848E-07  0.00000E+00  9.000E+00
#rwgt            1           9   430.94231781422729               12      420467           0
</event>
<event>
      6   9999  3.45752E-01  2.26747E+01 -1.00000E+00  1.56158E-01
      21    -1     0     0   501   502  0.000000000E+00  0.000000000E+00  1.347484582E+01  1.347484582E+01  0.000000000E+00  0.00000E+00  9.000E+00
      21    -1     0     0   502   512  0.000000000E+00  0.000000000E+00 -1.558637047E+03  1.558637047E+03  0.000000000E+00  0.00000E+00  9.000E+00
      25     1     1     2     0     0 -1.056433517E+01 -1.760052357E+01 -4.374214086E+02  4.553944424E+02  1.250009037E+02  0.00000E+00  9.000E+00
       5     1     1     2   501     0 -1.300548190E+00  1.964092987E+00  1.711853307E+00  5.571537364E+00  4.750000000E+00  0.00000E+00  9.000E+00
      -5     1     1     2     0   503 -2.899182777E+00  3.284581318E+01 -4.194722453E+02  4.207930368E+02  4.750000000E+00  0.00000E+00  9.000E+00
      21     1     1     2   503   512  1.476406613E+01 -1.720938259E+01 -6.899804005E+02  6.903528761E+02  1.705984480E-05  0.00000E+00  9.000E+00
#rwgt            1           9   3.8797509871707834E-003          12      424863           0
</event>
<event>
      6   9999  3.45752E-01  3.57499E+00 -1.00000E+00  2.58400E-01
      21    -1     0     0   501   511  0.000000000E+00  0.000000000E+00  2.223593898E+02  2.223593898E+02  0.000000000E+00  0.00000E+00  9.000E+00
      21    -1     0     0   502   503  0.000000000E+00  0.000000000E+00 -4.809815025E+01  4.809815025E+01  0.000000000E+00  0.00000E+00  9.000E+00
      25     1     1     2     0     0  8.749742333E-01  4.862722108E+00  3.699197383E+01  1.304519725E+02  1.249995974E+02  0.00000E+00  9.000E+00
       5     1     1     2   501     0  1.020284743E+00 -1.533701358E-01  1.040709207E+02  1.041843728E+02  4.750000000E+00  0.00000E+00  9.000E+00
      -5     1     1     2     0   503 -5.467110404E+00 -4.859112974E+00  1.568452699E+01  1.794622975E+01  4.750000000E+00  0.00000E+00  9.000E+00
      21     1     1     2   502   511  3.571851428E+00  1.497610020E-01  1.751381811E+01  1.787496505E+01  2.384185791E-07  0.00000E+00  9.000E+00
#rwgt            1           9   3.5231843357389128E-003          12      426257           0
</event>
<event>
      6   9999  3.45752E-01  5.56519E+00 -1.00000E+00  2.18712E-01
      21    -1     0     0   512   503  0.000000000E+00  0.000000000E+00  4.711281639E+02  4.711281639E+02  0.000000000E+00  0.00000E+00  9.000E+00
      21    -1     0     0   501   502  0.000000000E+00  0.000000000E+00 -8.614656659E+02  8.614656659E+02  0.000000000E+00  0.00000E+00  9.000E+00
      25     1     1     2     0     0 -2.995925114E+00  1.085544722E+00 -2.973085702E+02  3.225316656E+02  1.249965416E+02  0.00000E+00  9.000E+00
       5     1     1     2   501     0  2.300409125E-01  2.828005089E+00 -5.395549402E+02  5.395833083E+02  4.750000000E+00  0.00000E+00  9.000E+00
      -5     1     1     2     0   503 -7.679550719E-01  3.856700658E-01 -1.147243805E+01  1.244659919E+01  4.750000000E+00  0.00000E+00  9.000E+00
      21     1     1     2   512   502  3.533839274E+00 -4.299219877E+00  4.579984464E+02  4.580322567E+02  7.629394531E-06  0.00000E+00  9.000E+00
#rwgt            1           9   5.5393421471700141E-004          12      431844           0
</event>
<event>
      6   9999 -3.45752E-01  7.95894E+00 -1.00000E+00  1.98280E-01
      21    -1     0     0   501   502  0.000000000E+00  0.000000000E+00  1.181026564E+01  1.181026564E+01  0.000000000E+00  0.00000E+00  9.000E+00
      21    -1     0     0   502   511  0.000000000E+00  0.000000000E+00 -9.256728774E+02  9.256728774E+02  0.000000000E+00  0.00000E+00  9.000E+00
      25     1     1     2     0     0 -3.631129218E+00 -8.139765592E+00 -6.709829307E+02  6.825852155E+02  1.250001689E+02  0.00000E+00  9.000E+00
       5     1     1     2   501     0  3.975191991E+00 -1.421545342E+00  3.962959947E+00  7.489358722E+00  4.750000000E+00  0.00000E+00  9.000E+00
      -5     1     1     2     0   503  5.636401279E+00  4.309757374E+00 -1.479458410E+02  1.481920288E+02  4.750000000E+00  0.00000E+00  9.000E+00
      21     1     1     2   503   511 -5.980464052E+00  5.251553560E+00 -9.889679997E+01  9.921654000E+01  1.348699152E-06  0.00000E+00  9.000E+00
#rwgt            1           9  -2.2881283459312739E-004          12      436268           0
</event>
<event>
      6   9999  3.45752E-01  1.15040E+01 -1.00000E+00  1.81004E-01
      21    -1     0     0   501   512  0.000000000E+00  0.000000000E+00  5.978231425E+01  5.978231425E+01  0.000000000E+00  0.00000E+00  9.000E+00
      21    -1     0     0   502   503  0.000000000E+00  0.000000000E+00 -7.220275512E+02  7.220275512E+02  0.000000000E+00  0.00000E+00  9.000E+00
      25     1     1     2     0     0  1.465120988E+01  4.772039551E+00 -5.986756528E+02  6.117797285E+02  1.249978744E+02  0.00000E+00  9.000E+00
       5     1     1     2   501     0  6.903026931E+00 -2.478091139E-01 -2.551510887E+01  2.685696317E+01  4.750000000E+00  0.00000E+00  9.000E+00
      -5     1     1     2     0   503 -1.013016784E+01 -3.170571384E+00 -8.960406687E+01  9.035554284E+01  4.750000000E+00  0.00000E+00  9.000E+00
      21     1     1     2   502   512 -1.142406896E+01 -1.353659053E+00  5.154959160E+01  5.281763095E+01  6.743495762E-07  0.00000E+00  9.000E+00
#rwgt            1           9  0.74254398462076932               12      439168           0
</event>
<event>
      6   9999  3.45752E-01  5.02826E+01 -1.00000E+00  1.34657E-01
      21    -1     0     0   511   502  0.000000000E+00  0.000000000E+00  6.068641994E+02  6.068641994E+02  0.000000000E+00  0.00000E+00  9.000E+00
      21    -1     0     0   502   503  0.000000000E+00  0.000000000E+00 -1.132319754E+03  1.132319754E+03  0.000000000E+00  0.00000E+00  9.000E+00
      25     1     1     2     0     0 -1.090478239E+00  3.310880564E+01 -1.111119476E+03  1.118618849E+03  1.249970246E+02  0.00000E+00  9.000E+00
       5     1     1     2   501     0 -1.566141125E+01  1.275089325E+01  2.972333089E+01  3.624781346E+01  4.750000000E+00  0.00000E+00  9.000E+00
      -5     1     1     2     0   503 -1.348275315E+00  1.052199521E+00 -1.259153743E+01  1.356592367E+01  4.750000000E+00  0.00000E+00  9.000E+00
      21     1     1     2   511   501  1.810016480E+01 -4.691189842E+01  5.685321284E+02  5.707513672E+02  1.078959322E-05  0.00000E+00  9.000E+00
#rwgt            1           9   2.9337327604765499E-004          12      441583           0
</event>
<event>
      6   9999  3.45752E-01  4.79609E+00 -1.00000E+00  2.32589E-01
      21    -1     0     0   502   512  0.000000000E+00  0.000000000E+00  3.079485235E+03  3.079485235E+03  0.000000000E+00  0.00000E+00  9.000E+00
      21    -1     0     0   501   502  0.000000000E+00  0.000000000E+00 -4.275053022E+00  4.275053022E+00  0.000000000E+00  0.00000E+00  9.000E+00
      25     1     1     2     0     0  3.360365402E+01  2.340465340E+01  2.160342568E+03  2.164343151E+03  1.249971239E+02  0.00000E+00  9.000E+00
       5     1     1     2   501     0 -1.482525732E+01  1.669946175E+00  8.209020981E+01  8.356998277E+01  4.750000000E+00  0.00000E+00  9.000E+00
      -5     1     1     2     0   503 -2.160229332E+01 -2.895120505E+01  2.160013331E+02  2.190524360E+02  4.750000000E+00  0.00000E+00  9.000E+00
      21     1     1     2   503   512  2.823896619E+00  3.876605473E+00  6.167760713E+02  6.167947183E+02  1.078959322E-05  0.00000E+00  9.000E+00
#rwgt            1           9   1.0270154447249906E-002          12      443363           0
</event>
<event>
      6   9999  3.45752E-01  1.86713E+01 -1.00000E+00  1.62523E-01
      21    -1     0     0   501   511  0.000000000E+00  0.000000000E+00  4.219684000E+01  4.219684000E+01  0.000000000E+00  0.00000E+00  9.000E+00
      21    -1     0     0   502   503  0.000000000E+00  0.000000000E+00 -1.157720551E+03  1.157720551E+03  0.000000000E+00  0.00000E+00  9.000E+00
      25     1     1     2     0     0 -5.264465067E+01  1.304458032E+02 -6.149047068E+02  6.430569037E+02  1.250072640E+02  0.00000E+00  9.000E+00
       5     1     1     2   501     0  5.651519033E-01 -1.149109920E+00  1.505607717E+01  1.583943844E+01  4.750000000E+00  0.00000E+00  9.000E+00
      -5     1     1     2     0   503  3.352496422E+01 -1.313813318E+02 -4.945709826E+02  5.128430529E+02  4.750000000E+00  0.00000E+00  9.000E+00
      21     1     1     2   502   511  1.855453455E+01  2.084638598E+00 -2.110409839E+01  2.817799566E+01  4.768371582E-07  0.00000E+00  9.000E+00
#rwgt            1           9   3.4374282927226887E-004          12      447364           0
</event>
<event>
      6   9999  3.45752E-01  1.58798E+01 -1.00000E+00  1.68254E-01
      21    -1     0     0   501   512  0.000000000E+00  0.000000000E+00  2.684776670E+01  2.684776670E+01  0.000000000E+00  0.00000E+00  9.000E+00
      21    -1     0     0   502   503  0.000000000E+00  0.000000000E+00 -7.467944642E+02  7.467944642E+02  0.000000000E+00  0.00000E+00  9.000E+00
      25     1     1     2     0     0  9.876373155E+00 -2.353187373E+01 -6.576894617E+02  6.699498890E+02  1.250045354E+02  0.00000E+00  9.000E+00
       5     1     1     2   501     0  1.046693283E+00  5.004664325E+00 -6.220580729E+00  9.348815777E+00  4.750000000E+00  0.00000E+00  9.000E+00
      -5     1     1     2     0   503 -1.134727233E+01  2.653105299E+00 -7.124972858E+01  7.235251122E+01  4.750000000E+00  0.00000E+00  9.000E+00
      21     1     1     2   502   512  4.242058953E-01  1.587410411E+01  1.521307350E+01  2.199101492E+01  1.238859277E-06  0.00000E+00  9.000E+00
#rwgt            1           9   2.1991334549758702E-003          12      450192           0
</event>
<event>
      6   9999  3.45752E-01  7.37154E+00 -1.00000E+00  2.02317E-01
      -2    -1     0     0     0   502  0.000000000E+00  0.000000000E+00  1.047372243E+01  1.047372243E+01  0.000000000E+00  0.00000E+00  9.000E+00
      21    -1     0     0   502   503  0.000000000E+00  0.000000000E+00 -7.828436100E+02  7.828436100E+02  0.000000000E+00  0.00000E+00  9.000E+00
      25     1     1     2     0     0  9.194051533E+00 -2.991863848E+01 -4.768014418E+02  4.939080374E+02  1.250035160E+02  0.00000E+00  9.000E+00
       5     1     1     2   501     0 -1.011964917E+01  2.015114630E+01 -2.266257857E+02  2.277943925E+02  4.750000000E+00  0.00000E+00  9.000E+00
      -5     1     1     2     0   503  3.153832461E+00  2.740783537E+00 -5.845172007E+01  5.879306620E+01  4.750000000E+00  0.00000E+00  9.000E+00
      -2     1     1     2     0   501 -2.228234825E+00  7.026708647E+00 -1.049094001E+01  1.282183634E+01  2.665600750E-07  0.00000E+00  9.000E+00
#rwgt            1           9   1.1613951516722025E-003          12      451606           0
</event>
<event>
      6   9999 -3.45752E-01  1.78820E+01 -1.00000E+00  1.64012E-01
      21    -1     0     0   511   502  0.000000000E+00  0.000000000E+00  2.154382749E+01  2.154382749E+01  0.000000000E+00  0.00000E+00  9.000E+00
      21    -1     0     0   502   503  0.000000000E+00  0.000000000E+00 -2.168015688E+03  2.168015688E+03  0.000000000E+00  0.00000E+00  9.000E+00
      25     1     1     2     0     0  2.192047331E+01 -2.435393116E+01 -8.853448664E+02  8.947257210E+02  1.249998494E+02  0.00000E+00  9.000E+00
       5     1     1     2   501     0 -8.728225362E+00  2.318091057E+01 -6.454131505E+02  6.459057469E+02  4.750000000E+00  0.00000E+00  9.000E+00
      -5     1     1     2     0   503 -1.276882571E+01  1.904996812E+01 -6.272245331E+02  6.276616298E+02  4.750000000E+00  0.00000E+00  9.000E+00
      21     1     1     2   511   501 -4.234222299E-01 -1.787694753E+01  1.151068962E+01  2.126641754E+01  4.768371582E-07  0.00000E+00  9.000E+00
#rwgt            1           9  -5.7228448415154853E-003          12      454408           0
</event>
<event>
      6   9999  3.45752E-01  1.55077E+01 -1.00000E+00  1.69128E-01
      21    -1     0     0   501   512  0.000000000E+00  0.000000000E+00  3.638937865E+01  3.638937865E+01  0.000000000E+00  0.00000E+00  9.000E+00
      21    -1     0     0   502   503  0.000000000E+00  0.000000000E+00 -8.344244174E+02  8.344244174E+02  0.000000000E+00  0.00000E+00  9.000E+00
      25     1     1     2     0     0  3.229192105E+01 -2.713696550E+00 -7.012884448E+02  7.130786249E+02  1.250020407E+02  0.00000E+00  9.000E+00
       5     1     1     2   501     0  6.219383311E+00 -7.450604193E+00 -4.729644704E+00  1.179509519E+01  4.750000000E+00  0.00000E+00  9.000E+00
      -5     1     1     2     0   503 -3.293720979E+01 -4.306942218E+00 -1.141135056E+02  1.189447948E+02  4.750000000E+00  0.00000E+00  9.000E+00
      21     1     1     2   502   512 -5.574094570E+00  1.447124296E+01  2.209655636E+01  2.699528118E+01  8.920806376E-07  0.00000E+00  9.000E+00
#rwgt            1           9  0.10958223347228818               12      455970           0
</event>
<event>
      6   9999  3.45752E-01  2.42517E+01 -1.00000E+00  1.54073E-01
      21    -1     0     0   501   502  0.000000000E+00  0.000000000E+00  3.471975623E+02  3.471975623E+02  0.000000000E+00  0.00000E+00  9.000E+00
      21    -1     0     0   511   503  0.000000000E+00  0.000000000E+00 -3.901357329E+02  3.901357329E+02  0.000000000E+00  0.00000E+00  9.000E+00
      25     1     1     2     0     0 -5.580999920E+01 -2.022293581E+00 -3.164500041E+02  3.447960985E+02  1.249995952E+02  0.00000E+00  9.000E+00
       5     1     1     2   501     0 -5.010914766E+00  7.352784041E-01  2.702493426E+02  2.703385277E+02  4.750000000E+00  0.00000E+00  9.000E+00
      -5     1     1     2     0   503  8.273520286E+01 -9.100931678E+00  2.762087780E+01  8.782605615E+01  4.750000000E+00  0.00000E+00  9.000E+00
      21     1     1     2   511   502 -2.191428889E+01  1.038794685E+01 -2.435838686E+01  3.437261276E+01  6.743495762E-07  0.00000E+00  9.000E+00
#rwgt            1           9   1.0902142260733069E-005          12      457737           0
</event>
<event>
      6   9999  3.45752E-01  1.14460E+01 -1.00000E+00  1.81220E-01
      21    -1     0     0   501   512  0.000000000E+00  0.000000000E+00  9.461794751E+00  9.461794751E+00  0.000000000E+00  0.00000E+00  9.000E+00
      21    -1     0     0   502   503  0.000000000E+00  0.000000000E+00 -3.437740841E+03  3.437740841E+03  0.000000000E+00  0.00000E+00  9.000E+00
      25     1     1     2     0     0 -2.286379333E+01  6.029700934E+00 -3.253971605E+03  3.256457458E+03  1.249994395E+02  0.00000E+00  9.000E+00
       5     1     1     2   501     0 -2.521519748E+00  1.828260300E+00 -1.107964474E+01  1.245076806E+01  4.750000000E+00  0.00000E+00  9.000E+00
      -5     1     1     2     0   503  1.625979723E+01 -9.488860684E-01 -1.657150752E+02  1.665813016E+02  4.750000000E+00  0.00000E+00  9.000E+00
      21     1     1     2   502   512  9.125515844E+00 -6.909075166E+00  2.487278166E+00  1.171310854E+01  1.323773403E-06  0.00000E+00  9.000E+00
#rwgt            1           9   7.8441276729723453E-002          12      461800           0
</event>
<event>
      6   9999  3.45752E-01  1.08086E+01 -1.00000E+00  1.83705E-01
      21    -1     0     0   501   502  0.000000000E+00  0.000000000E+00  2.021010307E+01  2.021010307E+01  0.000000000E+00  0.00000E+00  9.000E+00
      21    -1     0     0   511   503  0.000000000E+00  0.000000000E+00 -2.349651458E+03  2.349651458E+03  0.000000000E+00  0.00000E+00  9.000E+00
      25     1     1     2     0     0  6.196710697E+01 -1.088129583E+02 -1.604527194E+03  1.614252956E+03  1.249996341E+02  0.00000E+00  9.000E+00
       5     1     1     2   501     0 -1.308211955E+00  1.627039673E-01 -9.690296341E-01  5.023883909E+00  4.750000000E+00  0.00000E+00  9.000E+00
      -5     1     1     2     0   503 -6.688113307E+01  1.174882028E+02 -3.321446998E+02  3.586352295E+02  4.750000000E+00  0.00000E+00  9.000E+00
      21     1     1     2   511   502  6.222238060E+00 -8.837948558E+00 -3.918004318E+02  3.919494916E+02  5.394796609E-06  0.00000E+00  9.000E+00
#rwgt            1           9   1.3833244589667148E-005          12      463707           0
</event>
<event>
      6   9999  3.45752E-01  7.33163E+00 -1.00000E+00  2.02610E-01
      21    -1     0     0   501   502  0.000000000E+00  0.000000000E+00  1.454728361E+01  1.454728361E+01  0.000000000E+00  0.00000E+00  9.000E+00
      21    -1     0     0   512   503  0.000000000E+00  0.000000000E+00 -9.594379388E+02  9.594379388E+02  0.000000000E+00  0.00000E+00  9.000E+00
      25     1     1     2     0     0  6.073283845E-01  1.644716606E+01 -7.552521389E+02  7.657030053E+02  1.249976835E+02  0.00000E+00  9.000E+00
       5     1     1     2   501     0 -7.956697638E-01 -1.296193273E+00  8.278071926E+00  9.664480440E+00  4.750000000E+00  0.00000E+00  9.000E+00
      -5     1     1     2     0   503  3.032265513E-01 -7.820246103E+00 -1.244292780E+02  1.247656039E+02  4.750000000E+00  0.00000E+00  9.000E+00
      21     1     1     2   512   502 -1.148851720E-01 -7.330726679E+00 -7.348731025E+01  7.385213280E+01  1.348699152E-06  0.00000E+00  9.000E+00
#rwgt            1           9   4.6604506174031246E-004          12      467196           0
</event>
<event>
      6   9999  3.45752E-01  7.30949E+00 -1.00000E+00  2.02773E-01
      21    -1     0     0   501   511  0.000000000E+00  0.000000000E+00  7.227129998E+00  7.227129998E+00  0.000000000E+00  0.00000E+00  9.000E+00
      21    -1     0     0   502   503  0.000000000E+00  0.000000000E+00 -8.087760297E+02  8.087760297E+02  0.000000000E+00  0.00000E+00  9.000E+00
      25     1     1     2     0     0 -6.426725433E+00  6.708196528E-01 -7.436939168E+02  7.541515200E+02  1.249884812E+02  0.00000E+00  9.000E+00
       5     1     1     2   501     0 -1.273954044E+00  7.548221777E-01 -3.632330939E+00  6.160279497E+00  4.750000000E+00  0.00000E+00  9.000E+00
      -5     1     1     2     0   503  7.957832790E-01  9.724799630E-01 -2.965865604E+01  3.006289019E+01  4.750000000E+00  0.00000E+00  9.000E+00
      21     1     1     2   502   511  6.904896198E+00 -2.398121794E+00 -2.456399600E+01  2.562847009E+01  0.000000000E+00  0.00000E+00  9.000E+00
#rwgt            1           9   3.5595592114582549E-003          12      470371           0
</event>
<event>
      6   9999  3.45752E-01  1.23848E+01 -1.00000E+00  1.77912E-01
      21    -1     0     0   501   502  0.000000000E+00  0.000000000E+00  3.163590607E+01  3.163590607E+01  0.000000000E+00  0.00000E+00  9.000E+00
      21    -1     0     0   502   512  0.000000000E+00  0.000000000E+00 -1.204694559E+03  1.204694559E+03  0.000000000E+00  0.00000E+00  9.000E+00
      25     1     1     2     0     0  2.807734455E+01  1.157905637E+02 -4.014571119E+02  4.370229573E+02  1.250018422E+02  0.00000E+00  9.000E+00
       5     1     1     2   501     0  2.545736541E+00 -1.204983846E-01  8.341483402E+00  9.931673562E+00  4.750000000E+00  0.00000E+00  9.000E+00
      -5     1     1     2     0   503 -2.774656437E+01 -1.036239555E+02 -7.331388805E+02  7.409608468E+02  4.750000000E+00  0.00000E+00  9.000E+00
      21     1     1     2   503   512 -2.876516717E+00 -1.204610984E+01 -4.680414371E+01  4.841498714E+01  0.000000000E+00  0.00000E+00  9.000E+00
#rwgt            1           9   1.5261935562391378E-003          12      472818           0
</event>
<event>
      6   9999  3.45752E-01  1.06191E+01 -1.00000E+00  1.84487E-01
      21    -1     0     0   502   503  0.000000000E+00  0.000000000E+00  1.380261064E+01  1.380261064E+01  0.000000000E+00  0.00000E+00  9.000E+00
      21    -1     0     0   511   502  0.000000000E+00  0.000000000E+00 -2.140251927E+03  2.140251927E+03  0.000000000E+00  0.00000E+00  9.000E+00
      25     1     1     2     0     0 -1.751374507E+01  6.688022678E+01 -6.806910240E+02  6.955069978E+02  1.249400569E+02  0.00000E+00  9.000E+00
       5     1     1     2   501     0  3.641915577E+00 -1.829804304E+01 -2.553103191E+01  3.197621020E+01  4.750000000E+00  0.00000E+00  9.000E+00
      -5     1     1     2     0   503  4.136449835E+00 -4.434101651E+01 -1.560540215E+02  1.623534911E+02  4.750000000E+00  0.00000E+00  9.000E+00
      21     1     1     2   511   501  9.735379662E+00 -4.241167232E+00 -1.264173239E+03  1.264217838E+03  1.525878906E-05  0.00000E+00  9.000E+00
#rwgt            1           9   8.6630973073758020E-005          12      475685           0
</event>
<event>
      6   9999  3.45752E-01  9.94356E+00 -1.00000E+00  1.87453E-01
      21    -1     0     0   501   502  0.000000000E+00  0.000000000E+00  1.281591003E+03  1.281591003E+03  0.000000000E+00  0.00000E+00  9.000E+00
      21    -1     0     0   512   503  0.000000000E+00  0.000000000E+00 -1.607746545E+01  1.607746545E+01  0.000000000E+00  0.00000E+00  9.000E+00
      25     1     1     2     0     0 -6.899706008E+00  7.659069979E+00  2.662960564E+02  2.943553923E+02  1.250009601E+02  0.00000E+00  9.000E+00
       5     1     1     2   501     0  4.100061241E+00 -2.711521417E-01  9.514081285E+02  9.514288589E+02  4.750000000E+00  0.00000E+00  9.000E+00
      -5     1     1     2     0   503  4.385228378E+00  2.428410138E+00  3.496636777E+01  3.564178417E+01  4.750000000E+00  0.00000E+00  9.000E+00
      21     1     1     2   512   502 -1.585583611E+00 -9.816327975E+00  1.284298450E+01  1.624243273E+01  5.591411304E-07  0.00000E+00  9.000E+00
#rwgt            1           9   1.5615315220887446E-004          12      477988           0
</event>
<event>
      6   9999  3.45752E-01  3.79696E+00 -1.00000E+00  2.52628E-01
      21    -1     0     0   511   502  0.000000000E+00  0.000000000E+00  1.134900111E+01  1.134900111E+01  0.000000000E+00  0.00000E+00  9.000E+00
      21    -1     0     0   502   503  0.000000000E+00  0.000000000E+00 -8.272982533E+02  8.272982533E+02  0.000000000E+00  0.00000E+00  9.000E+00
      25     1     1     2     0     0 -4.376805495E-01 -6.264090653E+00 -7.733976028E+02  7.834754479E+02  1.251019390E+02  0.00000E+00  9.000E+00
       5     1     1     2   501     0 -4.098262740E-01  8.305233039E-01  4.130703221E+00  6.362620186E+00  4.750000000E+00  0.00000E+00  9.000E+00
      -5     1     1     2     0   503  3.118932176E+00  2.390953373E+00 -4.326131079E+01  4.369837419E+01  4.750000000E+00  0.00000E+00  9.000E+00
      21     1     1     2   511   501 -2.271425353E+00  3.042613976E+00 -3.421041826E+00  5.110812080E+00  9.424321831E-08  0.00000E+00  9.000E+00
#rwgt            1           9   4.5048106673501384E-003          12      480523           0
</event>
<event>
      6   9999  3.45752E-01  1.45165E+01 -1.00000E+00  1.71614E-01
      21    -1     0     0   501   502  0.000000000E+00  0.000000000E+00  7.352029877E+01  7.352029877E+01  0.000000000E+00  0.00000E+00  9.000E+00
      21    -1     0     0   502   512  0.000000000E+00  0.000000000E+00 -9.622416954E+02  9.622416954E+02  0.000000000E+00  0.00000E+00  9.000E+00
      25     1     1     2     0     0  4.373906188E+00  3.276750709E+01 -1.885962988E+02  2.286646503E+02  1.250044711E+02  0.00000E+00  9.000E+00
       5     1     1     2   501     0  5.931846392E-01 -1.928390349E+00  4.791744097E+01  4.819454540E+01  4.750000000E+00  0.00000E+00  9.000E+00
      -5     1     1     2     0   503  9.533157183E+00 -3.015238847E+01 -4.238113042E+01  5.309209293E+01  4.750000000E+00  0.00000E+00  9.000E+00
      21     1     1     2   503   512 -1.450024801E+01 -6.867282759E-01 -7.056614083E+02  7.058107055E+02  1.078959322E-05  0.00000E+00  9.000E+00
#rwgt            1           9   8.7628415151226935E-005          12      485806           0
</event>
<event>
      6   9999  3.45752E-01  4.40709E+00 -1.00000E+00  2.39448E-01
      21    -1     0     0   501   502  0.000000000E+00  0.000000000E+00  1.162937520E+01  1.162937520E+01  0.000000000E+00  0.00000E+00  9.000E+00
      21    -1     0     0   502   511  0.000000000E+00  0.000000000E+00 -1.006081586E+03  1.006081586E+03  0.000000000E+00  0.00000E+00  9.000E+00
      25     1     1     2     0     0  4.073505586E+00 -2.317221131E+01 -3.939874845E+02  4.140106733E+02  1.250006195E+02  0.00000E+00  9.000E+00
       5     1     1     2   501     0 -8.660229244E-02  3.467865674E-01 -3.037169245E+00  5.649305966E+00  4.750000000E+00  0.00000E+00  9.000E+00
      -5     1     1     2     0   503 -7.360982610E+00  1.999028421E+01 -4.181027579E+02  4.186720366E+02  4.750000000E+00  0.00000E+00  9.000E+00
      21     1     1     2   503   511  3.374079316E+00  2.835140533E+00 -1.793247991E+02  1.793789453E+02  2.697398305E-06  0.00000E+00  9.000E+00
#rwgt            1           9   1.9084861691064945E-003          12      488197           0
</event>
<event>
      6   9999 -3.45752E-01  5.44652E+00 -1.00000E+00  2.20085E-01
      21    -1     0     0   501   512  0.000000000E+00  0.000000000E+00  5.654227229E+00  5.654227229E+00  0.000000000E+00  0.00000E+00  9.000E+00
      21    -1     0     0   502   503  0.000000000E+00  0.000000000E+00 -1.348609675E+03  1.348609675E+03  0.000000000E+00  0.00000E+00  9.000E+00
      25     1     1     2     0     0 -8.129642604E+00 -3.274930749E+00 -1.196614101E+03  1.203157352E+03  1.250019604E+02  0.00000E+00  9.000E+00
       5     1     1     2   501     0  1.001279296E+00  3.625436762E-01 -1.270787647E+00  5.031043569E+00  4.750000000E+00  0.00000E+00  9.000E+00
      -5     1     1     2     0   503  4.978113407E+00  7.916480831E+00 -1.178219627E+02  1.182879101E+02  4.750000000E+00  0.00000E+00  9.000E+00
      21     1     1     2   502   512  2.150249902E+00 -5.004093758E+00 -2.724859610E+01  2.778759649E+01  0.000000000E+00  0.00000E+00  9.000E+00
#rwgt            1           9  -1.0381135141716381E-004          12      493493           0
</event>
<event>
      6   9999 -3.45752E-01  2.47014E+00 -1.00000E+00  3.01026E-01
      21    -1     0     0   501   502  0.000000000E+00  0.000000000E+00  8.894895822E+00  8.894895822E+00  0.000000000E+00  0.00000E+00  9.000E+00
      21    -1     0     0   511   503  0.000000000E+00  0.000000000E+00 -1.964487457E+03  1.964487457E+03  0.000000000E+00  0.00000E+00  9.000E+00
      25     1     1     2     0     0 -1.965668040E+00 -3.874258637E+00 -1.444401332E+03  1.449808638E+03  1.250240169E+02  0.00000E+00  9.000E+00
       5     1     1     2   501     0  1.771244974E+00  6.816466212E-01  5.014631408E+00  7.163168226E+00  4.750000000E+00  0.00000E+00  9.000E+00
      -5     1     1     2     0   503 -4.912191075E-01  8.195370749E-01 -5.917914211E+01  5.937715299E+01  4.750000000E+00  0.00000E+00  9.000E+00
      21     1     1     2   511   502  6.856421734E-01  2.373074940E+00 -4.570267181E+02  4.570333934E+02  5.394796609E-06  0.00000E+00  9.000E+00
#rwgt            1           9  -9.4482402830310035E-004          12      497696           0
</event>
<event>
      6   9999  3.45752E-01  1.35549E+01 -1.00000E+00  1.74275E-01
      21    -1     0     0   512   502  0.000000000E+00  0.000000000E+00  6.079477750E+02  6.079477750E+02  0.000000000E+00  0.00000E+00  9.000E+00
      21    -1     0     0   502   503  0.000000000E+00  0.000000000E+00 -7.063360891E+01  7.063360891E+01  0.000000000E+00  0.00000E+00  9.000E+00
      25     1     1     2     0     0  6.680546116E+01  1.234620840E+01  3.515028766E+01  1.465470706E+02  1.250004107E+02  0.00000E+00  9.000E+00
       5     1     1     2   501     0 -3.794533307E+00 -1.931889373E-01  1.228891261E+02  1.230395693E+02  4.750000000E+00  0.00000E+00  9.000E+00
      -5     1     1     2     0   503 -7.073660212E+01 -2.329075609E+01  7.995639113E+01  1.093696173E+02  4.750000000E+00  0.00000E+00  9.000E+00
      21     1     1     2   512   501  7.725674275E+00  1.113773663E+01  2.993183611E+02  2.996251267E+02  5.394796609E-06  0.00000E+00  9.000E+00
#rwgt            1           9   3.2050424229679445E-003          12      505266           0
</event>
<event>
      6   9999  3.45752E-01  2.77701E+01 -1.00000E+00  1.50041E-01
      21    -1     0     0   501   511  0.000000000E+00  0.000000000E+00  1.059652123E+02  1.059652123E+02  0.000000000E+00  0.00000E+00  9.000E+00
      21    -1     0     0   502   503  0.000000000E+00  0.000000000E+00 -1.611669122E+03  1.611669122E+03  0.000000000E+00  0.00000E+00  9.000E+00
      25     1     1     2     0     0  2.517237147E+01  4.441786622E+00 -1.288168851E+03  1.294471976E+03  1.250013174E+02  0.00000E+00  9.000E+00
       5     1     1     2   501     0 -4.241261822E+01 -3.671178809E+01  7.563952224E+01  9.428937052E+01  4.750000000E+00  0.00000E+00  9.000E+00
      -5     1     1     2     0   503 -1.885823688E+00  1.213621842E+01 -2.999899600E+02  3.002788416E+02  4.750000000E+00  0.00000E+00  9.000E+00
      21     1     1     2   502   511  1.912607043E+01  2.013378305E+01  6.815379550E+00  2.859414605E+01  5.900558792E-07  0.00000E+00  9.000E+00
#rwgt            1           9   1.9633521338433869E-002          12      507664           0
</event>
<event>
      6   9999 -3.45752E-01  8.31042E+00 -1.00000E+00  1.96078E-01
      21    -1     0     0   501   502  0.000000000E+00  0.000000000E+00  7.607535796E+00  7.607535796E+00  0.000000000E+00  0.00000E+00  9.000E+00
      21    -1     0     0   502   512  0.000000000E+00  0.000000000E+00 -1.191836979E+03  1.191836979E+03  0.000000000E+00  0.00000E+00  9.000E+00
      25     1     1     2     0     0  9.987972311E+00  1.367402961E+01 -6.497887584E+02  6.619191362E+02  1.249990951E+02  0.00000E+00  9.000E+00
       5     1     1     2   501     0 -5.175545689E+00  1.272154772E+00 -1.039564490E+01  1.261097077E+01  4.750000000E+00  0.00000E+00  9.000E+00
      -5     1     1     2     0   503 -3.967851717E+00 -6.678793410E+00 -5.166484795E+01  5.246112029E+01  4.750000000E+00  0.00000E+00  9.000E+00
      21     1     1     2   503   512 -8.445749052E-01 -8.267390976E+00 -4.723801920E+02  4.724532875E+02  5.394796609E-06  0.00000E+00  9.000E+00
#rwgt            1           9  -3.3155441295807150E-002          12      510415           0
</event>
<event>
      6   9999 -3.45752E-01  2.53747E+01 -1.00000E+00  1.52701E-01
      21    -1     0     0   502   511  0.000000000E+00  0.000000000E+00  9.494792795E+00  9.494792795E+00  0.000000000E+00  0.00000E+00  9.000E+00
      21    -1     0     0   501   502  0.000000000E+00  0.000000000E+00 -9.725016106E+02  9.725016106E+02  0.000000000E+00  0.00000E+00  9.000E+00
      25     1     1     2     0     0  2.452241522E+01  1.014254875E+01 -6.400176059E+02  6.526502428E+02  1.250023336E+02  0.00000E+00  9.000E+00
       5     1     1     2   501     0  1.078904631E+00  2.776606039E+00 -5.230556661E+01  5.260521243E+01  4.750000000E+00  0.00000E+00  9.000E+00
      -5     1     1     2     0   503 -2.943234523E+01  1.216464491E+01 -1.488337033E+02  1.522769689E+02  4.750000000E+00  0.00000E+00  9.000E+00
      21     1     1     2   503   511  3.831025377E+00 -2.508379970E+01 -1.218499420E+02  1.244639793E+02  0.000000000E+00  0.00000E+00  9.000E+00
#rwgt            1           9  -2.6050704875981139E-003          12      512766           0
</event>
<event>
      6   9999  3.45752E-01  1.12503E+01 -1.00000E+00  1.81961E-01
      21    -1     0     0   501   512  0.000000000E+00  0.000000000E+00  2.497406081E+02  2.497406081E+02  0.000000000E+00  0.00000E+00  9.000E+00
      21    -1     0     0   502   503  0.000000000E+00  0.000000000E+00 -1.182297584E+02  1.182297584E+02  0.000000000E+00  0.00000E+00  9.000E+00
      25     1     1     2     0     0  2.788446547E+01 -9.695598576E+00 -5.704915306E+01  1.405852841E+02  1.250522618E+02  0.00000E+00  9.000E+00
       5     1     1     2   501     0  2.518197650E+00  1.605921529E+00  5.694416459E+01  5.721993258E+01  4.750000000E+00  0.00000E+00  9.000E+00
      -5     1     1     2     0   503 -2.042577967E+01  2.890587679E+00 -1.317746476E+01  2.493543763E+01  4.750000000E+00  0.00000E+00  9.000E+00
      21     1     1     2   502   512 -9.976883449E+00  5.199089368E+00  1.447933029E+02  1.452297122E+02  1.907348633E-06  0.00000E+00  9.000E+00
#rwgt            1           9   1.2064674148909266E-003          12      513982           0
</event>
<event>
      6   9999  3.45752E-01  2.53020E+01 -1.00000E+00  1.52787E-01
      21    -1     0     0   501   511  0.000000000E+00  0.000000000E+00  1.097114905E+03  1.097114905E+03  0.000000000E+00  0.00000E+00  9.000E+00
      21    -1     0     0   502   503  0.000000000E+00  0.000000000E+00 -1.879103953E+01  1.879103953E+01  0.000000000E+00  0.00000E+00  9.000E+00
      25     1     1     2     0     0  7.255796147E+01  6.346957103E+01  4.987851234E+02  5.231594615E+02  1.249647095E+02  0.00000E+00  9.000E+00
       5     1     1     2   501     0  1.602102184E+00  9.740653587E-01  2.026937678E+02  2.027580862E+02  4.750000000E+00  0.00000E+00  9.000E+00
      -5     1     1     2     0   503 -6.147932650E+01 -4.254861040E+01  2.714172316E+02  2.815669866E+02  4.750000000E+00  0.00000E+00  9.000E+00
      21     1     1     2   502   511 -1.268073715E+01 -2.189502599E+01  1.054277428E+02  1.084214103E+02  1.348699152E-06  0.00000E+00  9.000E+00
#rwgt            1           9  0.27114935928607181               12      516363           0
</event>
<event>
      6   9999  3.45752E-01  1.22756E+01 -1.00000E+00  1.78278E-01
      21    -1     0     0   501   502  0.000000000E+00  0.000000000E+00  1.030088029E+01  1.030088029E+01  0.000000000E+00  0.00000E+00  9.000E+00
      21    -1     0     0   512   503  0.000000000E+00  0.000000000E+00 -8.885710214E+02  8.885710214E+02  0.000000000E+00  0.00000E+00  9.000E+00
      25     1     1     2     0     0  8.828154994E-01  4.804995176E+00 -7.539604856E+02  7.642677062E+02  1.249993819E+02  0.00000E+00  9.000E+00
       5     1     1     2   501     0  1.990955264E+00 -1.353088261E+00  7.974394902E-01  5.384529733E+00  4.750000000E+00  0.00000E+00  9.000E+00
      -5     1     1     2     0   503  7.469929152E+00 -1.006236065E+01 -2.502677419E+01  2.838930907E+01  4.750000000E+00  0.00000E+00  9.000E+00
      21     1     1     2   512   502 -1.034369992E+01  6.610453735E+00 -1.000803208E+02  1.008303567E+02  1.348699152E-06  0.00000E+00  9.000E+00
#rwgt            1           9   4.2227326110331093E-004          12      517676           0
</event>
<event>
      6   9999  3.45752E-01  9.28375E+01 -1.00000E+00  1.21823E-01
       4    -1     0     0   502     0  0.000000000E+00  0.000000000E+00  1.463914665E+02  1.463914665E+02  0.000000000E+00  0.00000E+00  9.000E+00
      21    -1     0     0   501   502  0.000000000E+00  0.000000000E+00 -1.338719317E+03  1.338719317E+03  0.000000000E+00  0.00000E+00  9.000E+00
      25     1     1     2     0     0  1.740314310E+02  7.853127803E+01 -7.451889144E+02  7.793496872E+02  1.250012648E+02  0.00000E+00  9.000E+00
       5     1     1     2   501     0  1.477715655E+01  3.059376432E+01 -2.510458730E+02  2.533790355E+02  4.750000000E+00  0.00000E+00  9.000E+00
      -5     1     1     2     0   503 -1.847786367E+02 -1.637507437E+01 -2.741794898E+02  3.310713560E+02  4.750000000E+00  0.00000E+00  9.000E+00
       4     1     1     2   503     0 -4.029950789E+00 -9.274996798E+01  7.808642672E+01  1.213107048E+02  3.162979880E-06  0.00000E+00  9.000E+00
#rwgt            1           9  0.11086667022931690               12      520230           0
</event>
<event>
      6   9999  3.45752E-01  1.74836E+01 -1.00000E+00  1.64800E-01
      21    -1     0     0   501   502  0.000000000E+00  0.000000000E+00  8.127700962E+02  8.127700962E+02  0.000000000E+00  0.00000E+00  9.000E+00
      21    -1     0     0   502   511  0.000000000E+00  0.000000000E+00 -4.084835575E+01  4.084835575E+01  0.000000000E+00  0.00000E+00  9.000E+00
      25     1     1     2     0     0 -1.150518056E+01  1.880796376E+00  5.775763926E+02  5.910634863E+02  1.250025960E+02  0.00000E+00  9.000E+00
       5     1     1     2   501     0 -1.388815466E+00 -3.883541749E-01  9.882927546E+01  9.895386710E+01  4.750000000E+00  0.00000E+00  9.000E+00
      -5     1     1     2     0   503 -3.563665369E+00 -7.393370752E+00  1.271254761E+02  1.274786681E+02  4.750000000E+00  0.00000E+00  9.000E+00
      21     1     1     2   503   511  1.645766139E+01  5.900928551E+00 -3.160940372E+01  3.612243043E+01  8.259061849E-07  0.00000E+00  9.000E+00
#rwgt            1           9   2.1042204307990640E-005          12      521437           0
</event>
<event>
      6   9999  3.45752E-01  1.39969E+01 -1.00000E+00  1.73018E-01
      21    -1     0     0   512   502  0.000000000E+00  0.000000000E+00  2.784720927E+03  2.784720927E+03  0.000000000E+00  0.00000E+00  9.000E+00
      21    -1     0     0   502   503  0.000000000E+00  0.000000000E+00 -7.603718291E+00  7.603718291E+00  0.000000000E+00  0.00000E+00  9.000E+00
      25     1     1     2     0     0 -2.909693289E+00  8.918243995E+00  5.897415904E+02  6.029170334E+02  1.250032169E+02  0.00000E+00  9.000E+00
       5     1     1     2   501     0 -7.796204974E+00 -3.681003014E+00  1.876293703E+03  1.876319523E+03  4.750000000E+00  0.00000E+00  9.000E+00
      -5     1     1     2     0   503 -3.033598254E+00 -2.565442568E+00  1.056989818E+01  1.225028414E+01  4.750000000E+00  0.00000E+00  9.000E+00
      21     1     1     2   512   501  1.373949652E+01 -2.671798413E+00  3.005120180E+02  3.008378056E+02  5.394796609E-06  0.00000E+00  9.000E+00
#rwgt            1           9  0.70938033047803595               12      522679           0
</event>
<event>
      6   9999  3.45752E-01  2.25698E+01 -1.00000E+00  1.56304E-01
      21    -1     0     0   501   502  0.000000000E+00  0.000000000E+00  7.255513262E+01  7.255513262E+01  0.000000000E+00  0.00000E+00  9.000E+00
      21    -1     0     0   511   503  0.000000000E+00  0.000000000E+00 -1.236914069E+03  1.236914069E+03  0.000000000E+00  0.00000E+00  9.000E+00
      25     1     1     2     0     0 -1.843310445E+01  3.975210737E-01 -9.125565370E+02  9.212612502E+02  1.249916819E+02  0.00000E+00  9.000E+00
       5     1     1     2   501     0  1.368260969E+01  6.276552163E+00  6.597933233E+01  6.784131271E+01  4.750000000E+00  0.00000E+00  9.000E+00
      -5     1     1     2     0   503  7.431549643E+00  1.573591866E+01 -1.384800437E+02  1.396500343E+02  4.750000000E+00  0.00000E+00  9.000E+00
      21     1     1     2   511   502 -2.681054890E+00 -2.240999190E+01 -1.793016876E+02  1.807166040E+02  1.907348633E-06  0.00000E+00  9.000E+00
#rwgt            1           9   2.5061937113501643E-004          12      524920           0
</event>
<event>
      6   9999  3.45752E-01  3.94437E+01 -1.00000E+00  1.40540E-01
      21    -1     0     0   512   502  0.000000000E+00  0.000000000E+00  3.227230490E+03  3.227230490E+03  0.000000000E+00  0.00000E+00  9.000E+00
      21    -1     0     0   502   503  0.000000000E+00  0.000000000E+00 -5.055454345E+01  5.055454345E+01  0.000000000E+00  0.00000E+00  9.000E+00
      25     1     1     2     0     0 -2.160155377E+02 -9.416157678E+01  4.544386406E+02  5.269449235E+02  1.250094368E+02  0.00000E+00  9.000E+00
       5     1     1     2   501     0 -3.488189710E+00 -1.218489795E+01  1.693407182E+03  1.693461274E+03  4.750000000E+00  0.00000E+00  9.000E+00
      -5     1     1     2     0   503  1.840335232E+02  8.909338633E+01  8.723693732E+02  8.960227983E+02  4.750000000E+00  0.00000E+00  9.000E+00
      21     1     1     2   512   501  3.547020418E+01  1.725308840E+01  1.564607508E+02  1.613560380E+02  1.907348633E-06  0.00000E+00  9.000E+00
#rwgt            1           9   1.8045096581779547E-004          12      527363           0
</event>
<event>
      6   9999  3.45752E-01  3.57354E+01 -1.00000E+00  1.43086E-01
      21    -1     0     0   501   502  0.000000000E+00  0.000000000E+00  2.698079075E+01  2.698079075E+01  0.000000000E+00  0.00000E+00  9.000E+00
      21    -1     0     0   511   503  0.000000000E+00  0.000000000E+00 -1.334613420E+03  1.334613420E+03  0.000000000E+00  0.00000E+00  9.000E+00
      25     1     1     2     0     0 -1.522066520E+01 -9.855341671E+01 -6.364778336E+02  6.562567649E+02  1.249978568E+02  0.00000E+00  9.000E+00
       5     1     1     2   501     0 -4.936891991E+00  4.737833138E+00  4.298735029E+00  9.373451244E+00  4.750000000E+00  0.00000E+00  9.000E+00
      -5     1     1     2     0   503  1.050610407E+00  1.240140262E+02 -4.177968227E+02  4.358409458E+02  4.750000000E+00  0.00000E+00  9.000E+00
      21     1     1     2   511   502  1.910694679E+01 -3.019844267E+01 -2.576567076E+02  2.601230484E+02  3.814697266E-06  0.00000E+00  9.000E+00
#rwgt            1           9   3.7035496772347035E-004          12      529483           0
</event>
<event>
      6   9999  3.45752E-01  9.89109E+00 -1.00000E+00  1.87696E-01
      21    -1     0     0   501   502  0.000000000E+00  0.000000000E+00  8.300390210E+00  8.300390210E+00  0.000000000E+00  0.00000E+00  9.000E+00
      21    -1     0     0   512   503  0.000000000E+00  0.000000000E+00 -9.320548415E+02  9.320548415E+02  0.000000000E+00  0.00000E+00  9.000E+00
      25     1     1     2     0     0 -1.794774197E+01  2.604240476E-01 -6.955552288E+02  7.069282879E+02  1.250133538E+02  0.00000E+00  9.000E+00
       5     1     1     2   501     0 -4.100305741E-01 -5.380101826E-02 -1.874988853E+00  5.123387826E+00  4.750000000E+00  0.00000E+00  9.000E+00
      -5     1     1     2     0   503  8.999454886E+00  2.995803527E+00 -3.169307885E+01  3.342123238E+01  4.750000000E+00  0.00000E+00  9.000E+00
      21     1     1     2   512   502  9.358317661E+00 -3.202426556E+00 -1.946311548E+02  1.948823236E+02  2.697398305E-06  0.00000E+00  9.000E+00
#rwgt            1           9   9.7675982135147477E-005          12      530649           0
</event>
<event>
      6   9999  3.45752E-01  8.87637E+00 -1.00000E+00  1.92816E-01
      21    -1     0     0   501   511  0.000000000E+00  0.000000000E+00  2.078521095E+01  2.078521095E+01  0.000000000E+00  0.00000E+00  9.000E+00
      21    -1     0     0   502   503  0.000000000E+00  0.000000000E+00 -8.052443740E+02  8.052443740E+02  0.000000000E+00  0.00000E+00  9.000E+00
      25     1     1     2     0     0  1.342111962E+01 -4.904822238E+00 -5.926407303E+02  6.058474982E+02  1.249958883E+02  0.00000E+00  9.000E+00
       5     1     1     2   501     0 -2.815027448E+00 -3.063626134E-01  1.323118392E+00  5.686068929E+00  4.750000000E+00  0.00000E+00  9.000E+00
      -5     1     1     2     0   503 -1.833796778E+01  8.513558998E-01 -2.014484495E+02  2.023389389E+02  4.750000000E+00  0.00000E+00  9.000E+00
      21     1     1     2   502   511  7.731875601E+00  4.359828952E+00  8.306898372E+00  1.215707898E+01  8.172577143E-07  0.00000E+00  9.000E+00
#rwgt            1           9   2.5244198542020092E-005          12      532947           0
</event>
<event>
      6   9999  3.45752E-01  5.76179E+00 -1.00000E+00  2.16538E-01
       1    -1     0     0   501     0  0.000000000E+00  0.000000000E+00  4.256421893E+02  4.256421893E+02  0.000000000E+00  0.00000E+00  9.000E+00
      21    -1     0     0   502   503  0.000000000E+00  0.000000000E+00 -3.314880788E+02  3.314880788E+02  0.000000000E+00  0.00000E+00  9.000E+00
      25     1     1     2     0     0  8.298582583E+00  1.727411576E+01 -3.061636345E+02  3.312531651E+02  1.250009069E+02  0.00000E+00  9.000E+00
       5     1     1     2   501     0  2.967620374E+00  3.382750293E+00  3.484143173E+01  3.545049556E+01  4.750000000E+00  0.00000E+00  9.000E+00
      -5     1     1     2     0   503 -8.591003949E+00 -1.555377809E+01 -5.661376729E+00  1.924419518E+01  4.750000000E+00  0.00000E+00  9.000E+00
       1     1     1     2   502     0 -2.675199008E+00 -5.103087963E+00  3.711376900E+02  3.711824122E+02  5.394796609E-06  0.00000E+00  9.000E+00
#rwgt            1           9   2.2459910962160782E-004          12      535597           0
</event>
<event>
      6   9999  3.45752E-01  2.96707E+00 -1.00000E+00  2.78171E-01
      21    -1     0     0   501   502  0.000000000E+00  0.000000000E+00  7.884428698E+01  7.884428698E+01  0.000000000E+00  0.00000E+00  9.000E+00
      21    -1     0     0   502   511  0.000000000E+00  0.000000000E+00 -1.987732720E+02  1.987732720E+02  0.000000000E+00  0.00000E+00  9.000E+00
      25     1     1     2     0     0  6.607008837E+01 -6.007598009E+00 -1.170511339E+02  1.836507785E+02  1.250011707E+02  0.00000E+00  9.000E+00
       5     1     1     2   501     0 -1.832636977E-01  1.941280528E+00  1.925682877E+01  1.992962895E+01  4.750000000E+00  0.00000E+00  9.000E+00
      -5     1     1     2     0   503 -6.538989419E+01  6.991479672E+00 -1.697308161E+01  6.808352994E+01  4.750000000E+00  0.00000E+00  9.000E+00
      21     1     1     2   503   511 -4.969304817E-01 -2.925162191E+00 -5.161598222E+00  5.953621583E+00  5.960464478E-08  0.00000E+00  9.000E+00
#rwgt            1           9   3.0915798354733759E-003          12      540176           0
</event>
<event>
      6   9999 -3.45752E-01  2.01262E+01 -1.00000E+00  1.60002E-01
      21    -1     0     0   501   512  0.000000000E+00  0.000000000E+00  6.303019960E+01  6.303019960E+01  0.000000000E+00  0.00000E+00  9.000E+00
      21    -1     0     0   502   503  0.000000000E+00  0.000000000E+00 -5.836745589E+02  5.836745589E+02  0.000000000E+00  0.00000E+00  9.000E+00
      25     1     1     2     0     0 -3.132099428E+01  2.559150210E+01 -5.394313722E+02  5.551966626E+02  1.249847959E+02  0.00000E+00  9.000E+00
       5     1     1     2   501     0 -5.050882992E+00 -2.741592379E-02  3.955578123E+01  4.015886576E+01  4.750000000E+00  0.00000E+00  9.000E+00
      -5     1     1     2     0   503  2.429921589E+01 -9.460880906E+00 -1.479702571E+01  3.035580060E+01  4.750000000E+00  0.00000E+00  9.000E+00
      21     1     1     2   502   512  1.207266138E+01 -1.610320527E+01 -5.971742613E+00  2.099342951E+01  1.884864366E-07  0.00000E+00  9.000E+00
#rwgt            1           9  -4.4857970959610947E-003          12      546438           0
</event>
<event>
      6   9999 -3.45752E-01  2.27017E+01 -1.00000E+00  1.56121E-01
      21    -1     0     0   511   502  0.000000000E+00  0.000000000E+00  1.994817909E+01  1.994817909E+01  0.000000000E+00  0.00000E+00  9.000E+00
      21    -1     0     0   502   503  0.000000000E+00  0.000000000E+00 -1.053432286E+03  1.053432286E+03  0.000000000E+00  0.00000E+00  9.000E+00
      25     1     1     2     0     0 -3.479288019E+01 -4.964401015E+01 -9.201706195E+02  9.305989594E+02  1.250015275E+02  0.00000E+00  9.000E+00
       5     1     1     2   501     0  3.211407170E+01  1.020090074E+01 -2.090487197E+01  3.993680194E+01  4.750000000E+00  0.00000E+00  9.000E+00
      -5     1     1     2     0   503  7.392156358E+00  1.723605778E+01 -2.435180612E+01  3.110142480E+01  4.750000000E+00  0.00000E+00  9.000E+00
      21     1     1     2   511   501 -4.713347867E+00  2.220705163E+01 -6.805680958E+01  7.174327927E+01  1.651812370E-06  0.00000E+00  9.000E+00
#rwgt            1           9  -2.9458546839913354E-004          12      548808           0
</event>
<event>
      6   9999 -3.45752E-01  3.12788E+01 -1.00000E+00  1.46675E-01
      21    -1     0     0   502   503  0.000000000E+00  0.000000000E+00  1.337685131E+01  1.337685131E+01  0.000000000E+00  0.00000E+00  9.000E+00
      21    -1     0     0   501   512  0.000000000E+00  0.000000000E+00 -3.560836751E+03  3.560836751E+03  0.000000000E+00  0.00000E+00  9.000E+00
      25     1     1     2     0     0  6.691257886E+00 -7.206175816E+00 -3.122805401E+03  3.125321652E+03  1.250006226E+02  0.00000E+00  9.000E+00
       5     1     1     2   501     0 -2.025404658E+00  4.751664725E+00 -1.539239398E+00  7.184172855E+00  4.750000000E+00  0.00000E+00  9.000E+00
      -5     1     1     2     0   503 -1.264344524E+01  3.269888873E+01 -2.737375019E+01  4.473207721E+01  4.750000000E+00  0.00000E+00  9.000E+00
      21     1     1     2   502   512  7.977592011E+00 -3.024437764E+01 -3.957415097E+02  3.969757005E+02  5.394796609E-06  0.00000E+00  9.000E+00
#rwgt            1           9  -7.4800013086394231E-003          12      550986           0
</event>
<event>
      6   9999  3.45752E-01  1.20970E+01 -1.00000E+00  1.78886E-01
      21    -1     0     0   501   502  0.000000000E+00  0.000000000E+00  2.090496500E+02  2.090496500E+02  0.000000000E+00  0.00000E+00  9.000E+00
      21    -1     0     0   511   503  0.000000000E+00  0.000000000E+00 -3.987102251E+01  3.987102251E+01  0.000000000E+00  0.00000E+00  9.000E+00
      25     1     1     2     0     0  1.563965372E+01 -6.785517235E+00  1.251484405E+02  1.777023700E+02  1.250014325E+02  0.00000E+00  9.000E+00
       5     1     1     2   501     0 -1.069631595E+00 -7.054675117E-01  3.499707156E+01  3.534118439E+01  4.750000000E+00  0.00000E+00  9.000E+00
      -5     1     1     2     0   503 -1.930367791E+01 -3.641365786E+00  1.188864752E+01  2.344768572E+01  4.750000000E+00  0.00000E+00  9.000E+00
      21     1     1     2   511   502  4.733655789E+00  1.113235053E+01 -2.855532110E+00  1.242943237E+01  1.837138534E-07  0.00000E+00  9.000E+00
#rwgt            1           9  0.12758521223666267               12      552806           0
</event>
<event>
      6   9999 -3.45752E-01  8.79157E+00 -1.00000E+00  1.93285E-01
      21    -1     0     0   501   502  0.000000000E+00  0.000000000E+00  2.784974390E+01  2.784974390E+01  0.000000000E+00  0.00000E+00  9.000E+00
      21    -1     0     0   502   512  0.000000000E+00  0.000000000E+00 -8.161864431E+02  8.161864431E+02  0.000000000E+00  0.00000E+00  9.000E+00
      25     1     1     2     0     0  7.065614008E+00  1.012087775E+00 -4.294317922E+02  4.473117746E+02  1.250008493E+02  0.00000E+00  9.000E+00
       5     1     1     2   501     0  1.891547331E+00  3.980645420E+00  1.796895495E+01  1.910155311E+01  4.750000000E+00  0.00000E+00  9.000E+00
      -5     1     1     2     0   503 -1.798441698E+00  1.106432341E-01 -1.981848993E+01  2.045926875E+01  4.750000000E+00  0.00000E+00  9.000E+00
      21     1     1     2   503   512 -7.158719641E+00 -5.103376429E+00 -3.570553721E+02  3.571635906E+02  0.000000000E+00  0.00000E+00  9.000E+00
#rwgt            1           9  -1.8148967859382800E-004          12      554857           0
</event>
<event>
      6   9999  3.45752E-01  4.90646E+01 -1.00000E+00  1.35228E-01
      21    -1     0     0   501   511  0.000000000E+00  0.000000000E+00  5.082108749E+01  5.082108749E+01  0.000000000E+00  0.00000E+00  9.000E+00
      21    -1     0     0   502   503  0.000000000E+00  0.000000000E+00 -1.148031352E+03  1.148031352E+03  0.000000000E+00  0.00000E+00  9.000E+00
      25     1     1     2     0     0 -2.975122071E+00 -1.297561884E+02 -5.325088810E+02  5.621710906E+02  1.250004281E+02  0.00000E+00  9.000E+00
       5     1     1     2   501     0  3.976711224E+01  4.694682771E+01 -9.449185796E+01  1.128569961E+02  4.750000000E+00  0.00000E+00  9.000E+00
      -5     1     1     2     0   503 -8.365930512E+01  9.732807207E+01 -4.545139016E+02  4.723103663E+02  4.750000000E+00  0.00000E+00  9.000E+00
      21     1     1     2   502   511  4.686731495E+01 -1.451871139E+01 -1.569562410E+01  5.151398652E+01  6.529361695E-07  0.00000E+00  9.000E+00
#rwgt            1           9   1.9753611296824077E-003          12      557710           0
</event>
<event>
      6   9999  3.45752E-01  1.64938E+01 -1.00000E+00  1.66874E-01
      21    -1     0     0   501   502  0.000000000E+00  0.000000000E+00  5.830493038E+02  5.830493038E+02  0.000000000E+00  0.00000E+00  9.000E+00
      21    -1     0     0   502   512  0.000000000E+00  0.000000000E+00 -2.628419333E+01  2.628419333E+01  0.000000000E+00  0.00000E+00  9.000E+00
      25     1     1     2     0     0 -2.512261647E+01  1.607022746E+00  2.070023843E+02  2.431227053E+02  1.249997374E+02  0.00000E+00  9.000E+00
       5     1     1     2   501     0 -2.408311182E+00  4.496602500E+00  2.572834641E+02  2.573778600E+02  4.750000000E+00  0.00000E+00  9.000E+00
      -5     1     1     2     0   503  2.438236851E+01  1.008690260E+01  8.763203094E+01  9.164158906E+01  4.750000000E+00  0.00000E+00  9.000E+00
      21     1     1     2   503   512  3.148559146E+00 -1.619052785E+01  4.847231074E+00  1.719134276E+01  2.457562462E-07  0.00000E+00  9.000E+00
#rwgt            1           9   1.2000219106886785               12      558663           0
</event>
<event>
      6   9999  3.45752E-01  1.10276E+01 -1.00000E+00  1.82827E-01
      21    -1     0     0   501   502  0.000000000E+00  0.000000000E+00  7.980546625E+00  7.980546625E+00  0.000000000E+00  0.00000E+00  9.000E+00
      -4    -1     0     0     0   503  0.000000000E+00  0.000000000E+00 -1.046784100E+03  1.046784100E+03  0.000000000E+00  0.00000E+00  9.000E+00
      25     1     1     2     0     0  4.896596186E-01  1.237839050E+01 -6.967307885E+02  7.079633075E+02  1.249991554E+02  0.00000E+00  9.000E+00
       5     1     1     2   501     0 -4.976693400E-01  6.906820102E-01 -1.410457106E+00  5.027584476E+00  4.750000000E+00  0.00000E+00  9.000E+00
      -5     1     1     2     0   503 -3.633872500E+00 -2.660187115E+00 -2.281964143E+01  2.373984330E+01  4.750000000E+00  0.00000E+00  9.000E+00
      -4     1     1     2     0   502  3.641882221E+00 -1.040888539E+01 -3.178426662E+02  3.180339112E+02  5.394796609E-06  0.00000E+00  9.000E+00
#rwgt            1           9   8.7527063072836522E-005          12      560380           0
</event>
<event>
      6   9999  3.45752E-01  1.07958E+01 -1.00000E+00  1.83757E-01
      21    -1     0     0   511   502  0.000000000E+00  0.000000000E+00  1.188305871E+02  1.188305871E+02  0.000000000E+00  0.00000E+00  9.000E+00
      21    -1     0     0   502   503  0.000000000E+00  0.000000000E+00 -5.026682272E+02  5.026682272E+02  0.000000000E+00  0.00000E+00  9.000E+00
      25     1     1     2     0     0  2.425059242E+01 -2.110511711E+01 -1.898899918E+02  2.296004257E+02  1.249985171E+02  0.00000E+00  9.000E+00
       5     1     1     2   501     0  3.676847397E+00  3.849882499E+00  1.496543514E+01  1.657912999E+01  4.750000000E+00  0.00000E+00  9.000E+00
      -5     1     1     2     0   503 -1.941020476E+01  2.388899491E+01 -2.909312820E+02  2.925935978E+02  4.750000000E+00  0.00000E+00  9.000E+00
      21     1     1     2   511   501 -8.517235055E+00 -6.633760301E+00  8.201819857E+01  8.272566086E+01  0.000000000E+00  0.00000E+00  9.000E+00
#rwgt            1           9   2.0774993426092139E-004          12      562677           0
</event>
<event>
      6   9999 -3.45752E-01  6.77397E+00 -1.00000E+00  2.06972E-01
      21    -1     0     0   501   502  0.000000000E+00  0.000000000E+00  4.143665938E+01  4.143665938E+01  0.000000000E+00  0.00000E+00  9.000E+00
       2    -1     0     0   502     0  0.000000000E+00  0.000000000E+00 -5.315264670E+02  5.315264670E+02  0.000000000E+00  0.00000E+00  9.000E+00
      25     1     1     2     0     0 -2.217622947E+01 -2.020165204E+01 -3.704343655E+02  3.920821887E+02  1.249277058E+02  0.00000E+00  9.000E+00
       5     1     1     2   501     0 -4.631889450E+00  2.404275818E-02  2.004447075E+01  2.111393582E+01  4.750000000E+00  0.00000E+00  9.000E+00
      -5     1     1     2     0   503  2.115824767E+01  2.391467099E+01 -1.626844730E+01  3.614979683E+01  4.750000000E+00  0.00000E+00  9.000E+00
       2     1     1     2   503     0  5.649871250E+00 -3.737061713E+00 -1.234314656E+02  1.236172050E+02  1.907348633E-06  0.00000E+00  9.000E+00
#rwgt            1           9 -0.14132232883142862               12      565785           0
</event>
<event>
      6   9999  3.45752E-01  8.49530E+00 -1.00000E+00  1.94976E-01
      21    -1     0     0   501   502  0.000000000E+00  0.000000000E+00  2.435568755E+01  2.435568755E+01  0.000000000E+00  0.00000E+00  9.000E+00
      21    -1     0     0   502   511  0.000000000E+00  0.000000000E+00 -1.390498271E+03  1.390498271E+03  0.000000000E+00  0.00000E+00  9.000E+00
      25     1     1     2     0     0 -5.312474944E+01 -1.307620597E+01 -3.978303736E+02  4.205799548E+02  1.250010641E+02  0.00000E+00  9.000E+00
       5     1     1     2   501     0 -5.021146358E+00 -2.671426298E+00  1.063439418E+01  1.296153034E+01  4.750000000E+00  0.00000E+00  9.000E+00
      -5     1     1     2     0   503  5.179007901E+01  1.011081570E+01 -6.182875916E+02  6.205534218E+02  4.750000000E+00  0.00000E+00  9.000E+00
      21     1     1     2   503   511  6.355816792E+00  5.636816566E+00 -3.606590123E+02  3.607590515E+02  0.000000000E+00  0.00000E+00  9.000E+00
#rwgt            1           9   7.9639074293013481               12      570045           0
</event>
<event>
      6   9999  3.45752E-01  1.39000E+01 -1.00000E+00  1.73289E-01
      21    -1     0     0   501   512  0.000000000E+00  0.000000000E+00  3.894150758E+01  3.894150758E+01  0.000000000E+00  0.00000E+00  9.000E+00
      21    -1     0     0   502   503  0.000000000E+00  0.000000000E+00 -2.680523873E+03  2.680523873E+03  0.000000000E+00  0.00000E+00  9.000E+00
      25     1     1     2     0     0  8.210039049E+00  1.427440801E+01 -2.625563532E+03  2.628589015E+03  1.250007498E+02  0.00000E+00  9.000E+00
       5     1     1     2   501     0 -5.088823036E-01 -2.638658443E+00  3.389013362E+01  3.432674084E+01  4.750000000E+00  0.00000E+00  9.000E+00
      -5     1     1     2     0   503 -9.700809167E+00  2.119708160E+00 -3.224728810E+01  3.407416838E+01  4.750000000E+00  0.00000E+00  9.000E+00
      21     1     1     2   502   512  1.999652421E+00 -1.375545773E+01 -1.766167957E+01  2.247545667E+01  5.840038640E-07  0.00000E+00  9.000E+00
#rwgt            1           9   6.8478821738036108E-003          12      573844           0
</event>
<event>
      6   9999  3.45752E-01  2.81194E+00 -1.00000E+00  2.84478E-01
      21    -1     0     0   511   502  0.000000000E+00  0.000000000E+00  5.395436599E+01  5.395436599E+01  0.000000000E+00  0.00000E+00  9.000E+00
      21    -1     0     0   502   503  0.000000000E+00  0.000000000E+00 -4.234983290E+03  4.234983290E+03  0.000000000E+00  0.00000E+00  9.000E+00
      25     1     1     2     0     0  1.013834334E+01 -2.195530105E+01 -3.283440217E+03  3.285907653E+03  1.249984904E+02  0.00000E+00  9.000E+00
       5     1     1     2   501     0  1.436324807E+00 -1.049341823E+01  5.700380903E+00  1.293180952E+01  4.750000000E+00  0.00000E+00  9.000E+00
      -5     1     1     2     0   503 -1.266726218E+01  2.985773099E+01 -9.463640323E+02  9.469315644E+02  4.750000000E+00  0.00000E+00  9.000E+00
      21     1     1     2   511   501  1.092594040E+00  2.590988295E+00  4.307494476E+01  4.316662888E+01  5.394796609E-06  0.00000E+00  9.000E+00
#rwgt            1           9   1.9077782926294720E-003          12      576985           0
</event>
<event>
      6   9999  3.45752E-01  1.40009E+01 -1.00000E+00  1.73007E-01
      21    -1     0     0   501   502  0.000000000E+00  0.000000000E+00  3.701772404E+01  3.701772404E+01  0.000000000E+00  0.00000E+00  9.000E+00
       2    -1     0     0   502     0  0.000000000E+00  0.000000000E+00 -2.518262616E+03  2.518262616E+03  0.000000000E+00  0.00000E+00  9.000E+00
      25     1     1     2     0     0  2.247116649E+01  4.469224194E+01 -2.667604572E+02  2.988108948E+02  1.249978380E+02  0.00000E+00  9.000E+00
       5     1     1     2   501     0 -2.426409090E+00 -2.824191963E+00  1.976734673E+01  2.066818855E+01  4.750000000E+00  0.00000E+00  9.000E+00
      -5     1     1     2     0   503 -7.994891723E+00 -4.899727582E+01 -8.400015652E+02  8.414807445E+02  4.750000000E+00  0.00000E+00  9.000E+00
       2     1     1     2   503     0 -1.204986567E+01  7.129225840E+00 -1.394250216E+03  1.394320512E+03  2.642899792E-05  0.00000E+00  9.000E+00
#rwgt            1           9   8.9242022350517921E-004          12      584327           0
</event>
<event>
      6   9999  3.45752E-01  9.84380E+00 -1.00000E+00  1.87917E-01
      21    -1     0     0   511   503  0.000000000E+00  0.000000000E+00  4.709151188E+02  4.709151188E+02  0.000000000E+00  0.00000E+00  9.000E+00
      21    -1     0     0   501   502  0.000000000E+00  0.000000000E+00 -3.803959406E+01  3.803959406E+01  0.000000000E+00  0.00000E+00  9.000E+00
      25     1     1     2     0     0 -2.367407863E+01  3.437042436E+00  7.469542357E+01  1.475684648E+02  1.249990810E+02  0.00000E+00  9.000E+00
       5     1     1     2   501     0 -4.092395307E-01 -1.839551590E-01  2.527628516E+01  2.572264388E+01  4.750000000E+00  0.00000E+00  9.000E+00
      -5     1     1     2     0   503  1.551725637E+01  1.596957706E+00  5.006635472E+01  5.265489430E+01  4.750000000E+00  0.00000E+00  9.000E+00
      21     1     1     2   511   502  8.566061795E+00 -4.850044983E+00  2.828374613E+02  2.830087099E+02  3.814697266E-06  0.00000E+00  9.000E+00
#rwgt            1           9   3.2868540953079590E-005          12      586887           0
</event>
<event>
      6   9999 -3.45752E-01  1.24908E+01 -1.00000E+00  1.77562E-01
      21    -1     0     0   501   502  0.000000000E+00  0.000000000E+00  1.469932688E+01  1.469932688E+01  0.000000000E+00  0.00000E+00  9.000E+00
      21    -1     0     0   512   503  0.000000000E+00  0.000000000E+00 -9.284237743E+02  9.284237743E+02  0.000000000E+00  0.00000E+00  9.000E+00
      25     1     1     2     0     0  2.128055100E+01 -5.357324986E+00 -5.062907325E+02  5.219553638E+02  1.250021329E+02  0.00000E+00  9.000E+00
       5     1     1     2   501     0  1.629426365E-02  3.381911844E-01  4.912967866E+00  6.842104357E+00  4.750000000E+00  0.00000E+00  9.000E+00
      -5     1     1     2     0   503 -1.186179691E+01  1.320440902E+01 -3.615196735E+02  3.619863194E+02  4.750000000E+00  0.00000E+00  9.000E+00
      21     1     1     2   512   502 -9.435048352E+00 -8.185275222E+00 -5.082700931E+01  5.233931356E+01  6.743495762E-07  0.00000E+00  9.000E+00
#rwgt            1           9  -4.9484816155410190E-004          12      589078           0
</event>
<event>
      6   9999  3.45752E-01  5.98362E+00 -1.00000E+00  2.14223E-01
      21    -1     0     0   501   511  0.000000000E+00  0.000000000E+00  1.685866210E+01  1.685866210E+01  0.000000000E+00  0.00000E+00  9.000E+00
      21    -1     0     0   502   503  0.000000000E+00  0.000000000E+00 -9.576834889E+02  9.576834889E+02  0.000000000E+00  0.00000E+00  9.000E+00
      25     1     1     2     0     0 -5.833861291E+00  8.202533857E+00 -9.252626610E+02  9.337233090E+02  1.250076415E+02  0.00000E+00  9.000E+00
       5     1     1     2   501     0  3.014781285E+00  2.330217038E+00  2.929353450E+00  6.757398114E+00  4.750000000E+00  0.00000E+00  9.000E+00
      -5     1     1     2     0   503  6.353888069E+00 -5.704833957E+00 -2.400962756E+01  2.592183905E+01  4.750000000E+00  0.00000E+00  9.000E+00
      21     1     1     2   502   511 -3.534808063E+00 -4.827916939E+00  5.518108219E+00  8.139604925E+00  4.042583694E-07  0.00000E+00  9.000E+00
#rwgt            1           9   4.8031099186834806E-005          12      591267           0
</event>
<event>
      6   9999  3.45752E-01  3.15014E+01 -1.00000E+00  1.46479E-01
      21    -1     0     0   502   503  0.000000000E+00  0.000000000E+00  5.442027733E+02  5.442027733E+02  0.000000000E+00  0.00000E+00  9.000E+00
      21    -1     0     0   501   512  0.000000000E+00  0.000000000E+00 -1.335114363E+02  1.335114363E+02  0.000000000E+00  0.00000E+00  9.000E+00
      25     1     1     2     0     0  8.740552079E+00  3.250263255E+01  2.688123150E+02  2.983586644E+02  1.250000544E+02  0.00000E+00  9.000E+00
       5     1     1     2   501     0  7.518601266E+00 -2.651447906E+00  1.107515599E+02  1.111396872E+02  4.750000000E+00  0.00000E+00  9.000E+00
      -5     1     1     2     0   503 -7.867978703E+00  5.120993982E-01  1.474328219E+02  1.477198930E+02  4.750000000E+00  0.00000E+00  9.000E+00
      21     1     1     2   502   512 -8.391174642E+00 -3.036328404E+01 -1.163053598E+02  1.204959649E+02  0.000000000E+00  0.00000E+00  9.000E+00
#rwgt            1           9  0.10783290448395617               12      594921           0
</event>
<event>
      6   9999  3.45752E-01  7.58502E+00 -1.00000E+00  2.00794E-01
       1    -1     0     0   501     0  0.000000000E+00  0.000000000E+00  1.329495593E+02  1.329495593E+02  0.000000000E+00  0.00000E+00  9.000E+00
      21    -1     0     0   502   503  0.000000000E+00  0.000000000E+00 -9.570103946E+02  9.570103946E+02  0.000000000E+00  0.00000E+00  9.000E+00
      25     1     1     2     0     0  5.330209537E+00 -3.813331913E+00 -9.185011930E+02  9.269930807E+02  1.250151086E+02  0.00000E+00  9.000E+00
       5     1     1     2   501     0 -9.964383448E-02  1.796167338E+00 -7.124507251E+00  8.749699970E+00  4.750000000E+00  0.00000E+00  9.000E+00
      -5     1     1     2     0   503  2.035767834E+00 -1.583784454E-01 -2.595852067E+01  2.646841003E+01  4.750000000E+00  0.00000E+00  9.000E+00
       1     1     1     2   502     0 -7.266333537E+00  2.175543021E+00  1.275233857E+02  1.277487632E+02  3.303624740E-06  0.00000E+00  9.000E+00
#rwgt            1           9   1556.1856379665351               12      596550           0
</event>
<event>
      6   9999  3.45752E-01  6.36406E+00 -1.00000E+00  2.10555E-01
      21    -1     0     0   501   502  0.000000000E+00  0.000000000E+00  1.606232634E+01  1.606232634E+01  0.000000000E+00  0.00000E+00  9.000E+00
       1    -1     0     0   502     0  0.000000000E+00  0.000000000E+00 -1.234396475E+03  1.234396475E+03  0.000000000E+00  0.00000E+00  9.000E+00
      25     1     1     2     0     0  4.378477652E+00 -3.175225908E+01 -6.774190534E+02  6.896001832E+02  1.249978468E+02  0.00000E+00  9.000E+00
       5     1     1     2   501     0 -2.316861528E+00 -1.450736128E+00  7.080161956E+00  8.953417000E+00  4.750000000E+00  0.00000E+00  9.000E+00
      -5     1     1     2     0   503 -8.371391636E+00  3.403246272E+01 -1.601939058E+02  1.640516341E+02  4.750000000E+00  0.00000E+00  9.000E+00
       1     1     1     2   503     0  6.309775512E+00 -8.294675135E-01 -3.878013513E+02  3.878535669E+02  5.394796609E-06  0.00000E+00  9.000E+00
#rwgt            1           9   8.5197380152619102E-004          12      598807           0
</event>
<event>
      6   9999 -3.45752E-01  1.17920E+01 -1.00000E+00  1.79956E-01
      21    -1     0     0   501   502  0.000000000E+00  0.000000000E+00  9.071095949E+00  9.071095949E+00  0.000000000E+00  0.00000E+00  9.000E+00
      21    -1     0     0   511   503  0.000000000E+00  0.000000000E+00 -1.050098427E+03  1.050098427E+03  0.000000000E+00  0.00000E+00  9.000E+00
      25     1     1     2     0     0 -1.014483910E+01  3.215045034E+00 -6.428587697E+02  6.549856260E+02  1.250020728E+02  0.00000E+00  9.000E+00
       5     1     1     2   501     0 -1.015465277E+00  6.897873138E-01  4.787326345E-01  4.929367221E+00  4.750000000E+00  0.00000E+00  9.000E+00
      -5     1     1     2     0   503  4.721077772E+00  5.973783207E+00 -1.095989099E+02  1.099657138E+02  4.750000000E+00  0.00000E+00  9.000E+00
      21     1     1     2   511   502  6.439226609E+00 -9.878615555E+00 -2.890483841E+02  2.892888160E+02  3.814697266E-06  0.00000E+00  9.000E+00
#rwgt            1           9  -1.2806827546424484E-003          12      603124           0
</event>
<event>
      6   9999  3.45752E-01  1.68956E+01 -1.00000E+00  1.66011E-01
      21    -1     0     0   501   502  0.000000000E+00  0.000000000E+00  1.041893244E+01  1.041893244E+01  0.000000000E+00  0.00000E+00  9.000E+00
      21    -1     0     0   502   512  0.000000000E+00  0.000000000E+00 -2.205484410E+03  2.205484410E+03  0.000000000E+00  0.00000E+00  9.000E+00
      25     1     1     2     0     0 -2.857310046E+00  1.888161178E+01 -6.654600139E+02  6.773676236E+02  1.250007516E+02  0.00000E+00  9.000E+00
       5     1     1     2   501     0 -3.246463993E-01  2.712613798E+00  2.138393045E+00  5.882082431E+00  4.750000000E+00  0.00000E+00  9.000E+00
      -5     1     1     2     0   503 -7.472742968E+00 -8.481740715E+00 -9.232828091E+01  9.313890578E+01  4.750000000E+00  0.00000E+00  9.000E+00
      21     1     1     2   503   512  1.065469941E+01 -1.311248486E+01 -1.439415576E+03  1.439514730E+03  2.157918644E-05  0.00000E+00  9.000E+00
#rwgt            1           9   4.1080911265787737E-004          12      605815           0
</event>
<event>
      6   9999  3.45752E-01  4.95284E+00 -1.00000E+00  2.30088E-01
      21    -1     0     0   501   502  0.000000000E+00  0.000000000E+00  3.062338616E+00  3.062338616E+00  0.000000000E+00  0.00000E+00  9.000E+00
      21    -1     0     0   502   511  0.000000000E+00  0.000000000E+00 -2.115156470E+03  2.115156470E+03  0.000000000E+00  0.00000E+00  9.000E+00
      25     1     1     2     0     0  2.813600804E+00  3.799816794E+00 -1.908919826E+03  1.913013873E+03  1.249992910E+02  0.00000E+00  9.000E+00
       5     1     1     2   501     0 -1.582938539E+00  4.877987318E-01 -7.212377962E+00  8.793437206E+00  4.750000000E+00  0.00000E+00  9.000E+00
      -5     1     1     2     0   503 -5.446892755E+00 -1.688772714E+00 -7.990593891E+01  8.024987332E+01  4.750000000E+00  0.00000E+00  9.000E+00
      21     1     1     2   503   511  4.216230490E+00 -2.598842812E+00 -1.160559887E+02  1.161616249E+02  1.348699152E-06  0.00000E+00  9.000E+00
#rwgt            1           9   5.8641353843740364E-004          12      607610           0
</event>
<event>
      6   9999  3.45752E-01  5.96927E+00 -1.00000E+00  2.14369E-01
      21    -1     0     0   512   502  0.000000000E+00  0.000000000E+00  7.509953171E+00  7.509953171E+00  0.000000000E+00  0.00000E+00  9.000E+00
      21    -1     0     0   502   503  0.000000000E+00  0.000000000E+00 -7.390743515E+02  7.390743515E+02  0.000000000E+00  0.00000E+00  9.000E+00
      25     1     1     2     0     0  1.186506324E-01 -4.728602651E+00 -6.662690192E+02  6.779079081E+02  1.249894084E+02  0.00000E+00  9.000E+00
       5     1     1     2   501     0  1.995542295E+00  7.306872277E+00 -2.241565680E+01  2.413289750E+01  4.750000000E+00  0.00000E+00  9.000E+00
      -5     1     1     2     0   503 -1.384735643E+00  3.346260087E+00 -2.455507419E+01  2.527111231E+01  4.750000000E+00  0.00000E+00  9.000E+00
      21     1     1     2   512   501 -7.294572850E-01 -5.924529713E+00 -1.832464818E+01  1.927238675E+01  0.000000000E+00  0.00000E+00  9.000E+00
#rwgt            1           9   3.0379616821311780E-003          12      610930           0
</event>
<event>
      6   9999  3.45752E-01  4.48475E+01 -1.00000E+00  1.37364E-01
       3    -1     0     0   501     0  0.000000000E+00  0.000000000E+00  3.636187376E+02  3.636187376E+02  0.000000000E+00  0.00000E+00  9.000E+00
      21    -1     0     0   502   503  0.000000000E+00  0.000000000E+00 -4.667756851E+02  4.667756851E+02  0.000000000E+00  0.00000E+00  9.000E+00
      25     1     1     2     0     0  2.031080684E+01  1.651721458E+01 -4.185953930E+02  4.376495626E+02  1.250187559E+02  0.00000E+00  9.000E+00
       5     1     1     2   501     0  2.367863937E+01 -1.843963540E+00  7.620749969E+01  7.996388980E+01  4.750000000E+00  0.00000E+00  9.000E+00
      -5     1     1     2     0   503 -1.296041894E+00 -9.411678882E-01 -3.477230538E+01  3.513176971E+01  4.750000000E+00  0.00000E+00  9.000E+00
       3     1     1     2   502     0 -4.269340432E+01 -1.373208315E+01  2.740032513E+02  2.776492006E+02  3.814697266E-06  0.00000E+00  9.000E+00
#rwgt            1           9  0.68997249361372781               12      614416           0
</event>
<event>
      6   9999  3.45752E-01  1.11146E+01 -1.00000E+00  1.82486E-01
      21    -1     0     0   502   511  0.000000000E+00  0.000000000E+00  1.976272232E+02  1.976272232E+02  0.000000000E+00  0.00000E+00  9.000E+00
      21    -1     0     0   501   502  0.000000000E+00  0.000000000E+00 -7.025029925E+02  7.025029925E+02  0.000000000E+00  0.00000E+00  9.000E+00
      25     1     1     2     0     0 -7.835902886E+00 -8.678681313E+00 -5.866979018E+02  5.999841241E+02  1.250191996E+02  0.00000E+00  9.000E+00
       5     1     1     2   501     0 -1.436638071E+00  3.611189920E+00 -8.839751382E+01  8.861031301E+01  4.750000000E+00  0.00000E+00  9.000E+00
      -5     1     1     2     0   503  9.349782915E-02 -1.199829128E+00 -2.020314811E+01  2.078889187E+01  4.750000000E+00  0.00000E+00  9.000E+00
      21     1     1     2   503   511  9.179043128E+00  6.267320522E+00  1.904227945E+02  1.907468867E+02  4.672030912E-06  0.00000E+00  9.000E+00
#rwgt            1           9   1.1570468484268934E-002          12      615604           0
</event>
<event>
      6   9999  3.45752E-01  1.40781E+01 -1.00000E+00  1.72794E-01
      21    -1     0     0   512   502  0.000000000E+00  0.000000000E+00  1.474400217E+01  1.474400217E+01  0.000000000E+00  0.00000E+00  9.000E+00
      21    -1     0     0   502   503  0.000000000E+00  0.000000000E+00 -2.534529363E+03  2.534529363E+03  0.000000000E+00  0.00000E+00  9.000E+00
      25     1     1     2     0     0 -4.075542291E+01 -3.893107407E+01 -6.054005820E+02  6.207348534E+02  1.250010423E+02  0.00000E+00  9.000E+00
       5     1     1     2   501     0  2.309832526E+00  8.428190805E-01  4.393431711E+00  6.921734790E+00  4.750000000E+00  0.00000E+00  9.000E+00
      -5     1     1     2     0   503  3.333703166E+01  5.120679513E+01 -1.865607517E+03  1.866613903E+03  4.750000000E+00  0.00000E+00  9.000E+00
      21     1     1     2   512   501  5.108558725E+00 -1.311854014E+01 -5.317069305E+01  5.500287326E+01  1.168007728E-06  0.00000E+00  9.000E+00
#rwgt            1           9  0.15735569312746012               12      617604           0
</event>
<event>
      6   9999 -3.45752E-01  7.66983E+00 -1.00000E+00  2.00207E-01
      21    -1     0     0   501   511  0.000000000E+00  0.000000000E+00  2.729718322E+01  2.729718322E+01  0.000000000E+00  0.00000E+00  9.000E+00
      21    -1     0     0   502   503  0.000000000E+00  0.000000000E+00 -9.861289441E+02  9.861289441E+02  0.000000000E+00  0.00000E+00  9.000E+00
      25     1     1     2     0     0  3.919715178E+01  2.938835788E+00 -2.102469458E+02  2.477669198E+02  1.250584459E+02  0.00000E+00  9.000E+00
       5     1     1     2   501     0 -4.579327236E-01  1.104068004E+00  6.491839665E+00  8.132352106E+00  4.750000000E+00  0.00000E+00  9.000E+00
      -5     1     1     2     0   503 -3.683110222E+01 -1.147158658E+01 -7.351245427E+02  7.361513317E+02  4.750000000E+00  0.00000E+00  9.000E+00
      21     1     1     2   502   511 -1.908116838E+00  7.428682786E+00 -1.995211202E+01  2.137552366E+01  4.129530925E-07  0.00000E+00  9.000E+00
#rwgt            1           9  -1.0426553769933232E-003          12      620325           0
</event>
<event>
      6   9999 -3.45752E-01  5.08042E+01 -1.00000E+00  1.34418E-01
      21    -1     0     0   512   502  0.000000000E+00  0.000000000E+00  1.233595095E+02  1.233595095E+02  0.000000000E+00  0.00000E+00  9.000E+00
      21    -1     0     0   502   503  0.000000000E+00  0.000000000E+00 -1.552506854E+03  1.552506854E+03  0.000000000E+00  0.00000E+00  9.000E+00
      25     1     1     2     0     0 -7.647791272E+01 -6.462247452E+01 -1.418940214E+03  1.427949962E+03  1.249993122E+02  0.00000E+00  9.000E+00
       5     1     1     2   501     0 -3.714360081E+00 -6.601133452E+00  7.947493434E+01  7.997624099E+01  4.750000000E+00  0.00000E+00  9.000E+00
      -5     1     1     2     0   503  4.401791267E+01  3.555177056E+01 -1.010220085E+02  1.158857788E+02  4.750000000E+00  0.00000E+00  9.000E+00
      21     1     1     2   512   501  3.617436013E+01  3.567183741E+01  1.133994363E+01  5.205438153E+01  6.078504936E-07  0.00000E+00  9.000E+00
#rwgt            1           9  -8.8820639845469055E-005          12      624102           0
</event>
<event>
      6   9999 -3.45752E-01  1.15097E+01 -1.00000E+00  1.80983E-01
      21    -1     0     0   511   502  0.000000000E+00  0.000000000E+00  6.637466678E+01  6.637466678E+01  0.000000000E+00  0.00000E+00  9.000E+00
      21    -1     0     0   502   503  0.000000000E+00  0.000000000E+00 -1.496812837E+02  1.496812837E+02  0.000000000E+00  0.00000E+00  9.000E+00
      25     1     1     2     0     0  2.020282479E+01 -7.080493927E+00 -9.623020527E+01  1.591987295E+02  1.250027821E+02  0.00000E+00  9.000E+00
       5     1     1     2   501     0  1.568229821E+00  5.530162851E-01  2.685183842E+01  2.731938686E+01  4.750000000E+00  0.00000E+00  9.000E+00
      -5     1     1     2     0   503 -1.254377185E+01 -3.522448645E-01 -1.172581013E+01  1.781929886E+01  4.750000000E+00  0.00000E+00  9.000E+00
      21     1     1     2   511   501 -9.227282758E+00  6.879722507E+00 -2.202439971E+00  1.171853535E+01  5.960464478E-08  0.00000E+00  9.000E+00
#rwgt            1           9  -7.6055093609365585E-004          12      625523           0
</event>
<event>
      6   9999  3.45752E-01  1.34732E+02 -1.00000E+00  1.15179E-01
      21    -1     0     0   501   512  0.000000000E+00  0.000000000E+00  1.144442575E+02  1.144442575E+02  0.000000000E+00  0.00000E+00  9.000E+00
      21    -1     0     0   502   503  0.000000000E+00  0.000000000E+00 -1.215094191E+03  1.215094191E+03  0.000000000E+00  0.00000E+00  9.000E+00
      25     1     1     2     0     0 -1.592391814E+01 -1.165896545E+02 -1.106895021E+03  1.120129497E+03  1.250071333E+02  0.00000E+00  9.000E+00
       5     1     1     2   501     0 -1.662587122E+01 -1.422294737E+01  2.483299606E+01  3.343578949E+01  4.750000000E+00  0.00000E+00  9.000E+00
      -5     1     1     2     0   503  1.165951016E+00 -2.133463590E-01 -3.934768067E+01  3.965107101E+01  4.750000000E+00  0.00000E+00  9.000E+00
      21     1     1     2   502   512  3.138383834E+01  1.310259482E+02  2.075977216E+01  1.363220912E+02  2.092114541E-06  0.00000E+00  9.000E+00
#rwgt            1           9  0.25358149965214477               12      628692           0
</event>
<event>
      6   9999 -3.45752E-01  9.54479E+00 -1.00000E+00  1.89350E-01
      21    -1     0     0   511   503  0.000000000E+00  0.000000000E+00  8.007912676E+01  8.007912676E+01  0.000000000E+00  0.00000E+00  9.000E+00
      21    -1     0     0   501   502  0.000000000E+00  0.000000000E+00 -8.609072683E+02  8.609072683E+02  0.000000000E+00  0.00000E+00  9.000E+00
      25     1     1     2     0     0 -1.498430137E+00  1.165912322E+01 -8.232258541E+02  8.327448220E+02  1.249998050E+02  0.00000E+00  9.000E+00
       5     1     1     2   501     0  6.445194278E-01 -3.712069962E-01 -5.468221888E+00  7.281287698E+00  4.750000000E+00  0.00000E+00  9.000E+00
      -5     1     1     2     0   503  1.030248155E+01 -9.936081144E+00 -2.406443473E+01  2.839940763E+01  4.750000000E+00  0.00000E+00  9.000E+00
      21     1     1     2   511   502 -9.448570843E+00 -1.351835082E+00  7.193036924E+01  7.256087767E+01  9.536743164E-07  0.00000E+00  9.000E+00
#rwgt            1           9  -3.5992880041509918E-005          12      629173           0
</event>
<event>
      6   9999 -3.45752E-01  1.53095E+01 -1.00000E+00  1.69606E-01
      21    -1     0     0   501   512  0.000000000E+00  0.000000000E+00  1.171591092E+01  1.171591092E+01  0.000000000E+00  0.00000E+00  9.000E+00
      21    -1     0     0   502   503  0.000000000E+00  0.000000000E+00 -7.927817393E+02  7.927817393E+02  0.000000000E+00  0.00000E+00  9.000E+00
      25     1     1     2     0     0  1.119434449E+00  5.915616525E+00 -7.134131785E+02  7.243058570E+02  1.249974541E+02  0.00000E+00  9.000E+00
       5     1     1     2   501     0 -1.117881284E+01 -1.721945213E+01 -2.853794648E+01  3.547467093E+01  4.750000000E+00  0.00000E+00  9.000E+00
      -5     1     1     2     0   503 -9.492723825E-01  6.646711634E-01 -1.789654233E+01  1.855240236E+01  4.750000000E+00  0.00000E+00  9.000E+00
      21     1     1     2   502   512  1.100865078E+01  1.063916444E+01 -2.121816103E+01  2.616471994E+01  3.371747881E-07  0.00000E+00  9.000E+00
#rwgt            1           9  -2.4023195350081103E-003          12      631222           0
</event>
<event>
      6   9999  3.45752E-01  1.00456E+01 -1.00000E+00  1.86986E-01
      21    -1     0     0   501   511  0.000000000E+00  0.000000000E+00  6.448005045E+01  6.448005045E+01  0.000000000E+00  0.00000E+00  9.000E+00
      21    -1     0     0   502   503  0.000000000E+00  0.000000000E+00 -8.303509219E+02  8.303509219E+02  0.000000000E+00  0.00000E+00  9.000E+00
      25     1     1     2     0     0 -2.182771183E+00  1.199463691E+01 -7.818638196E+02  7.918847380E+02  1.249870797E+02  0.00000E+00  9.000E+00
       5     1     1     2   501     0 -1.847111638E+00  1.817319322E+00  5.045382084E+00  7.398165401E+00  4.750000000E+00  0.00000E+00  9.000E+00
      -5     1     1     2     0   503 -3.071501037E+00 -6.706691771E+00 -4.136218636E+01  4.228246438E+01  4.750000000E+00  0.00000E+00  9.000E+00
      21     1     1     2   502   511  7.101383858E+00 -7.105264461E+00  5.230975241E+01  5.326560459E+01  9.536743164E-07  0.00000E+00  9.000E+00
#rwgt            1           9   2.7341347369369957E-004          12      632640           0
</event>
<event>
      6   9999  3.45752E-01  7.27135E+00 -1.00000E+00  2.03056E-01
      21    -1     0     0   501   502  0.000000000E+00  0.000000000E+00  7.417679317E+01  7.417679317E+01  0.000000000E+00  0.00000E+00  9.000E+00
      21    -1     0     0   502   512  0.000000000E+00  0.000000000E+00 -8.933323547E+02  8.933323547E+02  0.000000000E+00  0.00000E+00  9.000E+00
      25     1     1     2     0     0 -2.234053050E+01 -2.915988773E+01 -7.603591653E+02  7.714415011E+02  1.250061236E+02  0.00000E+00  9.000E+00
       5     1     1     2   501     0 -4.929993115E+00 -2.793420338E+00  6.160349522E+01  6.204563766E+01  4.750000000E+00  0.00000E+00  9.000E+00
      -5     1     1     2     0   503  2.724701082E+01  3.922462237E+01 -8.262163233E+01  9.555033871E+01  4.750000000E+00  0.00000E+00  9.000E+00
      21     1     1     2   503   512  2.351279309E-02 -7.271314299E+00 -3.777825912E+01  3.847167044E+01  0.000000000E+00  0.00000E+00  9.000E+00
#rwgt            1           9  0.62589234308550823               12      635101           0
</event>
<event>
      6   9999  3.45752E-01  6.22331E+00 -1.00000E+00  2.11871E-01
      21    -1     0     0   501   511  0.000000000E+00  0.000000000E+00  1.730588607E+01  1.730588607E+01  0.000000000E+00  0.00000E+00  9.000E+00
      21    -1     0     0   502   503  0.000000000E+00  0.000000000E+00 -8.748044711E+02  8.748044711E+02  0.000000000E+00  0.00000E+00  9.000E+00
      25     1     1     2     0     0 -3.431126469E+01 -7.708490513E+00 -4.491908378E+02  4.676011746E+02  1.250670460E+02  0.00000E+00  9.000E+00
       5     1     1     2   501     0 -4.638859464E-02 -2.789523321E+00  5.263928389E+00  7.619385431E+00  4.750000000E+00  0.00000E+00  9.000E+00
      -5     1     1     2     0   503  2.899307491E+01  7.343502287E+00 -4.058232916E+02  4.069516334E+02  4.750000000E+00  0.00000E+00  9.000E+00
      21     1     1     2   502   511  5.364578372E+00  3.154511547E+00 -7.748384035E+00  9.938163783E+00  1.192092896E-07  0.00000E+00  9.000E+00
#rwgt            1           9   2.1042036547999320E-003          12      640584           0
</event>
<event>
      6   9999  3.45752E-01  9.87265E+00 -1.00000E+00  1.87782E-01
      21    -1     0     0   501   502  0.000000000E+00  0.000000000E+00  1.010805279E+01  1.010805279E+01  0.000000000E+00  0.00000E+00  9.000E+00
      21    -1     0     0   512   503  0.000000000E+00  0.000000000E+00 -8.314809322E+02  8.314809322E+02  0.000000000E+00  0.00000E+00  9.000E+00
      25     1     1     2     0     0  6.216288733E+00 -3.253795141E+01 -6.979073626E+02  7.097862048E+02  1.249976370E+02  0.00000E+00  9.000E+00
       5     1     1     2   501     0  8.910461179E-01  8.683579519E-01 -5.112088670E+00  7.088297348E+00  4.750000000E+00  0.00000E+00  9.000E+00
      -5     1     1     2     0   503 -1.299413766E+01  2.374402082E+01 -6.693162280E+01  7.235351248E+01  4.750000000E+00  0.00000E+00  9.000E+00
      21     1     1     2   512   502  5.886802806E+00  7.925572634E+00 -5.142180535E+01  5.236097033E+01  6.743495762E-07  0.00000E+00  9.000E+00
#rwgt            1           9   1.9580777175776652E-003          12      644678           0
</event>
<event>
      6   9999 -3.45752E-01  3.08806E+02 -1.00000E+00  1.02743E-01
       2    -1     0     0   502     0  0.000000000E+00  0.000000000E+00  1.609467547E+03  1.609467547E+03  0.000000000E+00  0.00000E+00  9.000E+00
      21    -1     0     0   501   502  0.000000000E+00  0.000000000E+00 -2.075857543E+03  2.075857543E+03  0.000000000E+00  0.00000E+00  9.000E+00
      25     1     1     2     0     0  1.128071799E+02 -1.982791103E+02 -1.366950758E+03  1.391481455E+03  1.250047902E+02  0.00000E+00  9.000E+00
       5     1     1     2   501     0  7.743811874E+01  1.018142452E+02 -1.628741018E+02  2.071553482E+02  4.750000000E+00  0.00000E+00  9.000E+00
      -5     1     1     2     0   503 -4.882260356E+02  1.541820699E+01 -3.747772225E+02  6.156970943E+02  4.750000000E+00  0.00000E+00  9.000E+00
       2     1     1     2   503     0  2.979807370E+02  8.104665816E+01  1.438212087E+03  1.470991192E+03  0.000000000E+00  0.00000E+00  9.000E+00
#rwgt            1           9  -83.267704818580214               12      647193           0
</event>
<event>
      6   9999  3.45752E-01  1.57762E+01 -1.00000E+00  1.68494E-01
      21    -1     0     0   501   502  0.000000000E+00  0.000000000E+00  7.194569363E+01  7.194569363E+01  0.000000000E+00  0.00000E+00  9.000E+00
      21    -1     0     0   502   511  0.000000000E+00  0.000000000E+00 -1.576879798E+03  1.576879798E+03  0.000000000E+00  0.00000E+00  9.000E+00
      25     1     1     2     0     0 -1.018249968E+01  7.731978768E+00 -1.070168523E+03  1.077519208E+03  1.249940356E+02  0.00000E+00  9.000E+00
       5     1     1     2   501     0 -2.122634129E+01  1.273491326E+00  6.560038281E+01  6.912417862E+01  4.750000000E+00  0.00000E+00  9.000E+00
      -5     1     1     2     0   503  1.768989087E+01 -1.679517683E+01 -3.758537188E+02  3.766743828E+02  4.750000000E+00  0.00000E+00  9.000E+00
      21     1     1     2   503   511  1.371895010E+01  7.789706734E+00 -1.245122449E+02  1.255077219E+02  2.336015456E-06  0.00000E+00  9.000E+00
#rwgt            1           9   7.2381510617878576E-004          12      647583           0
</event>
<event>
      6   9999  3.45752E-01  1.74394E+01 -1.00000E+00  1.64889E-01
      21    -1     0     0   512   502  0.000000000E+00  0.000000000E+00  5.562728155E+00  5.562728155E+00  0.000000000E+00  0.00000E+00  9.000E+00
      21    -1     0     0   502   503  0.000000000E+00  0.000000000E+00 -1.777248682E+03  1.777248682E+03  0.000000000E+00  0.00000E+00  9.000E+00
      25     1     1     2     0     0  1.997853661E+01  1.410585533E+00 -1.655165360E+03  1.659999588E+03  1.250005238E+02  0.00000E+00  9.000E+00
       5     1     1     2   501     0  6.220064116E-01  6.785238788E-01 -2.105281905E+01  2.160164291E+01  4.750000000E+00  0.00000E+00  9.000E+00
      -5     1     1     2     0   503 -5.358624409E+00  6.385381162E+00 -6.800246138E+01  6.867594340E+01  4.750000000E+00  0.00000E+00  9.000E+00
      21     1     1     2   512   501 -1.524191861E+01 -8.474490573E+00 -2.746531355E+01  3.253423615E+01  1.305872339E-06  0.00000E+00  9.000E+00
#rwgt            1           9   2.7145999520905773E-004          12      651186           0
</event>
<event>
      6   9999  3.45752E-01  5.88968E+00 -1.00000E+00  2.15187E-01
      21    -1     0     0   501   502  0.000000000E+00  0.000000000E+00  1.969407989E+01  1.969407989E+01  0.000000000E+00  0.00000E+00  9.000E+00
      21    -1     0     0   511   503  0.000000000E+00  0.000000000E+00 -3.836024408E+03  3.836024408E+03  0.000000000E+00  0.00000E+00  9.000E+00
      25     1     1     2     0     0  2.895754604E+01  9.900282239E+00 -3.111377600E+02  3.367021555E+02  1.250003232E+02  0.00000E+00  9.000E+00
       5     1     1     2   501     0 -8.353907428E-01  2.831951201E+00  5.234079577E+00  7.660020517E+00  4.750000000E+00  0.00000E+00  9.000E+00
      -5     1     1     2     0   503 -3.313140181E+01 -9.634531798E+00 -6.562581516E+02  6.571817389E+02  4.750000000E+00  0.00000E+00  9.000E+00
      21     1     1     2   511   502  5.009246508E+00 -3.097701643E+00 -2.854168496E+03  2.854174573E+03  5.285799584E-05  0.00000E+00  9.000E+00
#rwgt            1           9   6.7319468311282640E-005          12      652437           0
</event>
<event>
      6   9999  3.45752E-01  9.46643E+00 -1.00000E+00  1.89737E-01
      21    -1     0     0   512   502  0.000000000E+00  0.000000000E+00  5.940357947E+01  5.940357947E+01  0.000000000E+00  0.00000E+00  9.000E+00
      21    -1     0     0   502   503  0.000000000E+00  0.000000000E+00 -8.245454691E+02  8.245454691E+02  0.000000000E+00  0.00000E+00  9.000E+00
      25     1     1     2     0     0 -7.879812810E+00 -8.310327162E+00 -8.003940270E+02  8.101772305E+02  1.250015732E+02  0.00000E+00  9.000E+00
       5     1     1     2   501     0  4.060892883E+00 -5.401767940E+00  2.876213451E+01  2.992478620E+01  4.750000000E+00  0.00000E+00  9.000E+00
      -5     1     1     2     0   503  2.837518220E+00  4.296678326E+00 -1.707257820E+01  1.845395298E+01  4.750000000E+00  0.00000E+00  9.000E+00
      21     1     1     2   512   501  9.814017069E-01  9.415416775E+00  2.356258116E+01  2.539307884E+01  3.371747881E-07  0.00000E+00  9.000E+00
#rwgt            1           9   4.7954814349750164E-004          12      656402           0
</event>
<event>
      6   9999  3.45752E-01  1.25158E+01 -1.00000E+00  1.77480E-01
      21    -1     0     0   511   502  0.000000000E+00  0.000000000E+00  5.057327628E+02  5.057327628E+02  0.000000000E+00  0.00000E+00  9.000E+00
      21    -1     0     0   502   503  0.000000000E+00  0.000000000E+00 -2.494500435E+01  2.494500435E+01  0.000000000E+00  0.00000E+00  9.000E+00
      25     1     1     2     0     0 -4.855379163E+00  1.292786989E+01  1.432688501E+02  1.906275562E+02  1.249887884E+02  0.00000E+00  9.000E+00
       5     1     1     2   501     0  5.307237955E-02  5.762298128E-01  2.696475679E+02  2.696900225E+02  4.750000000E+00  0.00000E+00  9.000E+00
      -5     1     1     2     0   503  1.582237096E+00 -1.409667037E+00  1.158324374E+01  1.269742773E+01  4.750000000E+00  0.00000E+00  9.000E+00
      21     1     1     2   511   501  3.220069688E+00 -1.209443266E+01  5.628809670E+01  5.766276078E+01  1.168007728E-06  0.00000E+00  9.000E+00
#rwgt            1           9   2.4244888276621457E-004          12      659866           0
</event>
<event>
      6   9999 -3.45752E-01  6.79799E+01 -1.00000E+00  1.28017E-01
      21    -1     0     0   502   512  0.000000000E+00  0.000000000E+00  8.365856230E+02  8.365856230E+02  0.000000000E+00  0.00000E+00  9.000E+00
      21    -1     0     0   501   502  0.000000000E+00  0.000000000E+00 -5.423308229E+02  5.423308229E+02  0.000000000E+00  0.00000E+00  9.000E+00
      25     1     1     2     0     0  1.400691834E+01  6.168856898E+01 -1.271002796E+02  1.891668344E+02  1.250117469E+02  0.00000E+00  9.000E+00
       5     1     1     2   501     0  1.196921674E+00 -3.138242634E+00 -2.716328276E+02  2.716951172E+02  4.750000000E+00  0.00000E+00  9.000E+00
      -5     1     1     2     0   503  2.689923409E+01 -5.178057853E+00 -1.093565816E+02  1.128353026E+02  4.750000000E+00  0.00000E+00  9.000E+00
      21     1     1     2   503   512 -4.210307410E+01 -5.337226850E+01  8.023444888E+02  8.052191917E+02  1.078959322E-05  0.00000E+00  9.000E+00
#rwgt            1           9  -9.8906285304586916E-004          12      662236           0
</event>
<event>
      6   9999  3.45752E-01  7.05774E+00 -1.00000E+00  2.04685E-01
      21    -1     0     0   511   502  0.000000000E+00  0.000000000E+00  3.519097578E+02  3.519097578E+02  0.000000000E+00  0.00000E+00  9.000E+00
      21    -1     0     0   502   503  0.000000000E+00  0.000000000E+00 -7.416135612E+02  7.416135612E+02  0.000000000E+00  0.00000E+00  9.000E+00
      25     1     1     2     0     0  1.719991896E+01  2.995597819E+00 -5.803849294E+02  5.939497979E+02  1.249995414E+02  0.00000E+00  9.000E+00
       5     1     1     2   501     0  5.164249229E-02 -2.204562310E-01 -4.720067213E+00  6.700209130E+00  4.750000000E+00  0.00000E+00  9.000E+00
      -5     1     1     2     0   503 -1.426420634E+01 -9.169465596E+00 -1.481784508E+02  1.492211864E+02  4.750000000E+00  0.00000E+00  9.000E+00
      21     1     1     2   511   501 -2.987355114E+00  6.394324008E+00  3.435796440E+02  3.436521256E+02  5.394796609E-06  0.00000E+00  9.000E+00
#rwgt            1           9   2.4283069084136621E-004          12      662758           0
</event>
<event>
      6   9999 -3.45752E-01  2.21506E+01 -1.00000E+00  1.56897E-01
      -1    -1     0     0     0   502  0.000000000E+00  0.000000000E+00  1.597150428E+02  1.597150428E+02  0.000000000E+00  0.00000E+00  9.000E+00
      21    -1     0     0   502   503  0.000000000E+00  0.000000000E+00 -1.799455498E+02  1.799455498E+02  0.000000000E+00  0.00000E+00  9.000E+00
      25     1     1     2     0     0  5.976224862E+01 -7.785036828E+01  2.057064698E+01  1.602491174E+02  1.249976876E+02  0.00000E+00  9.000E+00
       5     1     1     2   501     0 -3.591221621E-01  3.492519885E+01 -1.666173286E+01  3.898813057E+01  4.750000000E+00  0.00000E+00  9.000E+00
      -5     1     1     2     0   503 -8.107144265E+01  4.752213191E+01 -4.985361736E+01  1.064841655E+02  4.750000000E+00  0.00000E+00  9.000E+00
      -1     1     1     2     0   501  2.166831619E+01 -4.596962479E+00  2.571419632E+01  3.393917918E+01  4.768371582E-07  0.00000E+00  9.000E+00
#rwgt            1           9  -1.0125710037887450E-003          12      665328           0
</event>
<event>
      6   9999  3.45752E-01  1.77154E+01 -1.00000E+00  1.64338E-01
      21    -1     0     0   511   502  0.000000000E+00  0.000000000E+00  3.024013179E+01  3.024013179E+01  0.000000000E+00  0.00000E+00  9.000E+00
      21    -1     0     0   502   503  0.000000000E+00  0.000000000E+00 -8.317445533E+02  8.317445533E+02  0.000000000E+00  0.00000E+00  9.000E+00
      25     1     1     2     0     0 -1.566440706E+00 -1.530789832E+01 -5.334227824E+02  5.480891693E+02  1.250003486E+02  0.00000E+00  9.000E+00
       5     1     1     2   501     0  1.869234526E+01 -1.195068207E+01 -2.796283586E+01  3.600979399E+01  4.750000000E+00  0.00000E+00  9.000E+00
      -5     1     1     2     0   503 -5.213136295E+00  1.414663544E+01 -2.545475212E+02  2.550378543E+02  4.750000000E+00  0.00000E+00  9.000E+00
      21     1     1     2   511   501 -1.191276826E+01  1.311194495E+01  1.442871799E+01  2.284786753E+01  9.684608465E-07  0.00000E+00  9.000E+00
#rwgt            1           9   2.3448832124221431E-003          12      667426           0
</event>
<event>
      6   9999  3.45752E-01  3.84726E+00 -1.00000E+00  2.51402E-01
      21    -1     0     0   501   512  0.000000000E+00  0.000000000E+00  2.564054265E+03  2.564054265E+03  0.000000000E+00  0.00000E+00  9.000E+00
      21    -1     0     0   502   503  0.000000000E+00  0.000000000E+00 -5.900745354E+01  5.900745354E+01  0.000000000E+00  0.00000E+00  9.000E+00
      25     1     1     2     0     0  1.350547289E+01  7.777580905E+01  1.056819064E+03  1.067109038E+03  1.249947608E+02  0.00000E+00  9.000E+00
       5     1     1     2   501     0 -1.034847947E+01 -2.856944092E-01  1.410041693E+03  1.410087696E+03  4.750000000E+00  0.00000E+00  9.000E+00
      -5     1     1     2     0   503  2.893884062E-01 -7.920003938E+01 -2.451668512E+01  8.304432751E+01  4.750000000E+00  0.00000E+00  9.000E+00
      21     1     1     2   502   512 -3.446381825E+00  1.709924740E+00  6.270273976E+01  6.282065714E+01  6.743495762E-07  0.00000E+00  9.000E+00
#rwgt            1           9   3.0818375090666934E-002          12      668997           0
</event>
<event>
      6   9999  3.45752E-01  2.72467E+01 -1.00000E+00  1.50594E-01
      21    -1     0     0   501   511  0.000000000E+00  0.000000000E+00  5.892739241E+01  5.892739241E+01  0.000000000E+00  0.00000E+00  9.000E+00
      21    -1     0     0   502   503  0.000000000E+00  0.000000000E+00 -1.531953298E+03  1.531953298E+03  0.000000000E+00  0.00000E+00  9.000E+00
      25     1     1     2     0     0 -9.101317973E+01  1.613293547E+02 -2.450405722E+02  3.316339776E+02  1.250026139E+02  0.00000E+00  9.000E+00
       5     1     1     2   501     0 -1.509463915E-01 -1.043803882E+00  4.550090106E-01  4.886905417E+00  4.750000000E+00  0.00000E+00  9.000E+00
      -5     1     1     2     0   503  8.088457026E+01 -1.855187582E+02 -1.190843232E+03  1.207927849E+03  4.750000000E+00  0.00000E+00  9.000E+00
      21     1     1     2   502   511  1.027955587E+01  2.523320737E+01 -3.759711005E+01  4.643195782E+01  0.000000000E+00  0.00000E+00  9.000E+00
#rwgt            1           9   3.2480492426652379E-005          12      678042           0
</event>
<event>
      6   9999  3.45752E-01  5.66656E+00 -1.00000E+00  2.17576E-01
      21    -1     0     0   512   503  0.000000000E+00  0.000000000E+00  9.424216296E+00  9.424216296E+00  0.000000000E+00  0.00000E+00  9.000E+00
      21    -1     0     0   501   502  0.000000000E+00  0.000000000E+00 -7.072326458E+02  7.072326458E+02  0.000000000E+00  0.00000E+00  9.000E+00
      25     1     1     2     0     0 -9.991234647E-01 -2.349646790E+00 -5.790255198E+02  5.923698236E+02  1.249997450E+02  0.00000E+00  9.000E+00
       5     1     1     2   501     0  3.967711656E+00 -2.259340362E+00 -7.980291106E+01  8.007443080E+01  4.750000000E+00  0.00000E+00  9.000E+00
      -5     1     1     2     0   503 -3.408829416E+00 -1.040445562E+00 -3.800087249E+01  3.846207814E+01  4.750000000E+00  0.00000E+00  9.000E+00
      21     1     1     2   512   502  4.402412245E-01  5.649432714E+00 -9.791261766E-01  5.750529575E+00  5.053229617E-08  0.00000E+00  9.000E+00
#rwgt            1           9   6.1771449712828906E-002          12      680027           0
</event>
<event>
      6   9999 -3.45752E-01  4.61895E+00 -1.00000E+00  2.35589E-01
      21    -1     0     0   501   511  0.000000000E+00  0.000000000E+00  3.374568393E+00  3.374568393E+00  0.000000000E+00  0.00000E+00  9.000E+00
      21    -1     0     0   502   503  0.000000000E+00  0.000000000E+00 -4.069964013E+03  4.069964013E+03  0.000000000E+00  0.00000E+00  9.000E+00
      25     1     1     2     0     0 -7.249437029E+00  2.020458046E+00 -3.251347706E+03  3.253758312E+03  1.249984289E+02  0.00000E+00  9.000E+00
       5     1     1     2   501     0  1.201022591E+00  1.689989602E+00 -2.494433077E+00  5.751801152E+00  4.750000000E+00  0.00000E+00  9.000E+00
      -5     1     1     2     0   503  9.764416402E+00 -6.453815320E+00 -8.023724036E+02  8.024718263E+02  4.750000000E+00  0.00000E+00  9.000E+00
      21     1     1     2   502   511 -3.716001964E+00  2.743367673E+00 -1.037490148E+01  1.135664200E+01  8.344650269E-07  0.00000E+00  9.000E+00
#rwgt            1           9  -1.0273682529727395               12      683415           0
</event>
<event>
      6   9999  3.45752E-01  6.29800E+00 -1.00000E+00  2.11167E-01
      21    -1     0     0   502   512  0.000000000E+00  0.000000000E+00  8.096454559E+00  8.096454559E+00  0.000000000E+00  0.00000E+00  9.000E+00
      21    -1     0     0   501   502  0.000000000E+00  0.000000000E+00 -9.925060868E+02  9.925060868E+02  0.000000000E+00  0.00000E+00  9.000E+00
      25     1     1     2     0     0 -8.578997433E+00  3.565765226E+01 -6.794046696E+02  6.917810408E+02  1.250009436E+02  0.00000E+00  9.000E+00
       5     1     1     2   501     0 -1.857979087E+00 -7.745963669E+00 -7.143107684E+01  7.203064124E+01  4.750000000E+00  0.00000E+00  9.000E+00
      -5     1     1     2     0   503  1.207627377E+01 -2.183077072E+01 -2.233047473E+02  2.247442805E+02  4.750000000E+00  0.00000E+00  9.000E+00
      21     1     1     2   503   512 -1.639297251E+00 -6.080917866E+00 -1.026913846E+01  1.204657886E+01  3.769728732E-07  0.00000E+00  9.000E+00
#rwgt            1           9   1.3841391613725296E-004          12      688286           0
</event>
<event>
      6   9999  3.45752E-01  1.85638E+01 -1.00000E+00  1.62720E-01
      -1    -1     0     0     0   502  0.000000000E+00  0.000000000E+00  6.249428436E+02  6.249428436E+02  0.000000000E+00  0.00000E+00  9.000E+00
      21    -1     0     0   502   503  0.000000000E+00  0.000000000E+00 -1.330690078E+03  1.330690078E+03  0.000000000E+00  0.00000E+00  9.000E+00
      25     1     1     2     0     0  2.057604989E+01  1.481513346E+01 -1.125247547E+03  1.132453035E+03  1.249998831E+02  0.00000E+00  9.000E+00
       5     1     1     2   501     0  1.619627467E+01 -1.224962207E+01  4.299425208E+01  4.778536142E+01  4.750000000E+00  0.00000E+00  9.000E+00
      -5     1     1     2     0   503 -2.009206617E+01 -1.071322929E+01 -1.986157921E+02  1.999731477E+02  4.750000000E+00  0.00000E+00  9.000E+00
      -1     1     1     2     0   501 -1.668025839E+01  8.147717893E+00  5.751218530E+02  5.754213779E+02  1.078959322E-05  0.00000E+00  9.000E+00
#rwgt            1           9   1.7965842934965354E-003          12      691548           0
</event>
<event>
      6   9999 -3.45752E-01  4.57031E+00 -1.00000E+00  2.36448E-01
      21    -1     0     0   501   511  0.000000000E+00  0.000000000E+00  5.493633659E+01  5.493633659E+01  0.000000000E+00  0.00000E+00  9.000E+00
      21    -1     0     0   502   503  0.000000000E+00  0.000000000E+00 -1.117361815E+03  1.117361815E+03  0.000000000E+00  0.00000E+00  9.000E+00
      25     1     1     2     0     0 -1.342723416E+01  1.641183487E+01 -1.104847981E+03  1.112098819E+03  1.250003322E+02  0.00000E+00  9.000E+00
       5     1     1     2   501     0  4.136558559E+00 -2.584334008E+00  1.512480796E+01  1.658650701E+01  4.750000000E+00  0.00000E+00  9.000E+00
      -5     1     1     2     0   503  1.135613643E+01 -9.750538986E+00 -2.332087227E-01  1.570514984E+01  4.750000000E+00  0.00000E+00  9.000E+00
      21     1     1     2   502   511 -2.065460828E+00 -4.076961872E+00  2.753090319E+01  2.790767595E+01  1.685873940E-06  0.00000E+00  9.000E+00
#rwgt            1           9  -5.2338156823144091E-004          12      694585           0
</event>
<event>
      6   9999  3.45752E-01  1.42462E+01 -1.00000E+00  1.72335E-01
      21    -1     0     0   501   502  0.000000000E+00  0.000000000E+00  9.266896825E+00  9.266896825E+00  0.000000000E+00  0.00000E+00  9.000E+00
       1    -1     0     0   502     0  0.000000000E+00  0.000000000E+00 -1.208812189E+03  1.208812189E+03  0.000000000E+00  0.00000E+00  9.000E+00
      25     1     1     2     0     0 -5.985317326E+00 -4.248518549E+00 -5.477332203E+02  5.618635749E+02  1.250004891E+02  0.00000E+00  9.000E+00
       5     1     1     2   501     0 -7.858697365E-01  8.648928762E-01 -1.752275867E+00  5.196017864E+00  4.750000000E+00  0.00000E+00  9.000E+00
      -5     1     1     2     0   503  1.597721847E+00  1.665723930E+01 -2.066206992E+02  2.073516149E+02  4.750000000E+00  0.00000E+00  9.000E+00
       1     1     1     2   503     0  5.173465215E+00 -1.327361362E+01 -4.434390970E+02  4.436678784E+02  5.394796609E-06  0.00000E+00  9.000E+00
#rwgt            1           9   4.1265252402118940E-004          12      699876           0
</event>
<event>
      6   9999  3.45752E-01  4.78099E+00 -1.00000E+00  2.32838E-01
      21    -1     0     0   501   502  0.000000000E+00  0.000000000E+00  7.825124421E+00  7.825124421E+00  0.000000000E+00  0.00000E+00  9.000E+00
      21    -1     0     0   511   503  0.000000000E+00  0.000000000E+00 -1.919798787E+03  1.919798787E+03  0.000000000E+00  0.00000E+00  9.000E+00
      25     1     1     2     0     0  2.319625503E+00 -4.847405932E+00 -1.677292057E+03  1.681951746E+03  1.249966117E+02  0.00000E+00  9.000E+00
       5     1     1     2   501     0  2.806596269E+00  3.455619847E+00  3.309970884E+00  7.303197820E+00  4.750000000E+00  0.00000E+00  9.000E+00
      -5     1     1     2     0   503 -4.633263642E-01  3.357188390E-01 -3.549819127E+01  3.581914937E+01  4.750000000E+00  0.00000E+00  9.000E+00
      21     1     1     2   511   502 -4.662895407E+00  1.056067246E+00 -2.024933850E+02  2.025498182E+02  3.814697266E-06  0.00000E+00  9.000E+00
#rwgt            1           9   8.3000501025496317E-005          12      701346           0
</event>
<event>
      6   9999  3.45752E-01  1.89714E+01 -1.00000E+00  1.61981E-01
      21    -1     0     0   512   502  0.000000000E+00  0.000000000E+00  1.105856174E+02  1.105856174E+02  0.000000000E+00  0.00000E+00  9.000E+00
      21    -1     0     0   502   503  0.000000000E+00  0.000000000E+00 -2.014961193E+03  2.014961193E+03  0.000000000E+00  0.00000E+00  9.000E+00
      25     1     1     2     0     0 -1.454074587E+01 -1.629817838E+00 -1.618454671E+03  1.623341613E+03  1.250135253E+02  0.00000E+00  9.000E+00
       5     1     1     2   501     0 -8.985187466E+00  1.551810583E+00 -3.516749259E+00  1.086608187E+01  4.750000000E+00  0.00000E+00  9.000E+00
      -5     1     1     2     0   503  4.919551507E+00  3.781523973E+00 -3.859704555E+02  3.860495525E+02  4.750000000E+00  0.00000E+00  9.000E+00
      21     1     1     2   512   501  1.860638183E+01 -3.703516718E+00  1.035663002E+02  1.052895628E+02  4.672030912E-06  0.00000E+00  9.000E+00
#rwgt            1           9  0.56900684531453805               12      705755           0
</event>
<event>
      6   9999  3.45752E-01  4.18216E+00 -1.00000E+00  2.43914E-01
      21    -1     0     0   501   511  0.000000000E+00  0.000000000E+00  1.505223823E+01  1.505223823E+01  0.000000000E+00  0.00000E+00  9.000E+00
      21    -1     0     0   502   503  0.000000000E+00  0.000000000E+00 -8.155491557E+02  8.155491557E+02  0.000000000E+00  0.00000E+00  9.000E+00
      25     1     1     2     0     0  1.448818430E+01 -1.543113489E+01 -5.506683984E+02  5.650741738E+02  1.250004380E+02  0.00000E+00  9.000E+00
       5     1     1     2   501     0 -8.769382858E-01 -1.525036866E+00  1.540393526E+00  5.294343247E+00  4.750000000E+00  0.00000E+00  9.000E+00
      -5     1     1     2     0   503 -1.588965903E+01  1.344913594E+01 -2.542559785E+02  2.551509859E+02  4.750000000E+00  0.00000E+00  9.000E+00
      21     1     1     2   502   511  2.278413016E+00  3.507035813E+00  2.887065904E+00  5.081890947E+00  2.563692709E-07  0.00000E+00  9.000E+00
#rwgt            1           9   5.0573600188710268E-004          12      707251           0
</event>
<event>
      6   9999  3.45752E-01  4.59470E+01 -1.00000E+00  1.36782E-01
      21    -1     0     0   501   502  0.000000000E+00  0.000000000E+00  1.792289810E+01  1.792289810E+01  0.000000000E+00  0.00000E+00  9.000E+00
       2    -1     0     0   502     0  0.000000000E+00  0.000000000E+00 -2.335349637E+03  2.335349637E+03  0.000000000E+00  0.00000E+00  9.000E+00
      25     1     1     2     0     0  1.700064206E+01  7.975552758E+01 -4.137627639E+02  4.398582160E+02  1.250026373E+02  0.00000E+00  9.000E+00
       5     1     1     2   501     0  3.665000400E+01 -5.884359588E+01 -3.566735856E+02  3.633791419E+02  4.750000000E+00  0.00000E+00  9.000E+00
      -5     1     1     2     0   503 -7.884879230E+00 -1.683542553E+01 -7.796386200E+01  8.029028056E+01  4.750000000E+00  0.00000E+00  9.000E+00
       2     1     1     2   503     0 -4.576576683E+01 -4.076506161E+00 -1.469026528E+03  1.469744897E+03  0.000000000E+00  0.00000E+00  9.000E+00
#rwgt            1           9   4.4303804101758215E-003          12      711600           0
</event>
<event>
      6   9999  3.45752E-01  1.35065E+01 -1.00000E+00  1.74416E-01
      21    -1     0     0   502   503  0.000000000E+00  0.000000000E+00  7.788793460E+01  7.788793460E+01  0.000000000E+00  0.00000E+00  9.000E+00
      21    -1     0     0   511   502  0.000000000E+00  0.000000000E+00 -4.610666425E+02  4.610666425E+02  0.000000000E+00  0.00000E+00  9.000E+00
      25     1     1     2     0     0 -5.937408132E-02 -2.083243458E+01 -4.581702624E+01  1.347685715E+02  1.250174952E+02  0.00000E+00  9.000E+00
       5     1     1     2   501     0 -2.358075365E-01 -1.731309893E-01  4.728654006E+00  6.708818692E+00  4.750000000E+00  0.00000E+00  9.000E+00
      -5     1     1     2     0   503 -9.705520886E+00  1.192754266E+01  2.522044390E+01  2.991816672E+01  4.750000000E+00  0.00000E+00  9.000E+00
      21     1     1     2   511   501  1.000070250E+01  9.078022914E+00 -3.673107796E+02  3.675590202E+02  5.394796609E-06  0.00000E+00  9.000E+00
#rwgt            1           9   4.8079882165593687E-004          12      712368           0
</event>
<event>
      6   9999  3.45752E-01  1.61038E+01 -1.00000E+00  1.67742E-01
      21    -1     0     0   501   502  0.000000000E+00  0.000000000E+00  8.774641485E+01  8.774641485E+01  0.000000000E+00  0.00000E+00  9.000E+00
      21    -1     0     0   512   503  0.000000000E+00  0.000000000E+00 -1.317591642E+03  1.317591642E+03  0.000000000E+00  0.00000E+00  9.000E+00
      25     1     1     2     0     0 -5.449029721E+01  1.629660038E+00 -2.800143837E+02  3.114554036E+02  1.249982603E+02  0.00000E+00  9.000E+00
       5     1     1     2   501     0  2.190754054E+00 -3.658837992E+00  6.956164345E+01  6.985392786E+01  4.750000000E+00  0.00000E+00  9.000E+00
      -5     1     1     2     0   503  4.999957642E+01  1.796793002E+01 -9.802867854E+02  9.817370057E+02  4.750000000E+00  0.00000E+00  9.000E+00
      21     1     1     2   512   502  2.299966732E+00 -1.593875207E+01 -3.910570097E+01  4.229171920E+01  8.259061849E-07  0.00000E+00  9.000E+00
#rwgt            1           9  0.20179051088918201               12      714005           0
</event>
<event>
      6   9999 -3.45752E-01  1.25100E+01 -1.00000E+00  1.77499E-01
      21    -1     0     0   501   502  0.000000000E+00  0.000000000E+00  1.246484956E+01  1.246484956E+01  0.000000000E+00  0.00000E+00  9.000E+00
       2    -1     0     0   502     0  0.000000000E+00  0.000000000E+00 -2.437317238E+03  2.437317238E+03  0.000000000E+00  0.00000E+00  9.000E+00
      25     1     1     2     0     0 -1.151702984E-01  1.925419839E+01 -5.736637557E+02  5.874320815E+02  1.249624278E+02  0.00000E+00  9.000E+00
       5     1     1     2   501     0  1.263353905E+00 -1.203252784E+00  3.953357520E+00  6.421480829E+00  4.750000000E+00  0.00000E+00  9.000E+00
      -5     1     1     2     0   503  1.113355636E+01 -1.567183461E+01 -2.655476849E+02  2.662849938E+02  4.750000000E+00  0.00000E+00  9.000E+00
       2     1     1     2   503     0 -1.228173997E+01 -2.379110996E+00 -1.589594305E+03  1.589643531E+03  2.157918644E-05  0.00000E+00  9.000E+00
#rwgt            1           9  -1.3994067621864480E-003          12      717066           0
</event>
<event>
      6   9999  3.45752E-01  1.85538E+01 -1.00000E+00  1.62739E-01
      21    -1     0     0   501   502  0.000000000E+00  0.000000000E+00  2.587664747E+01  2.587664747E+01  0.000000000E+00  0.00000E+00  9.000E+00
      21    -1     0     0   511   503  0.000000000E+00  0.000000000E+00 -1.288194069E+03  1.288194069E+03  0.000000000E+00  0.00000E+00  9.000E+00
      25     1     1     2     0     0 -9.023404580E+01 -3.084544323E-01 -7.993298386E+02  8.140614339E+02  1.250021966E+02  0.00000E+00  9.000E+00
       5     1     1     2   501     0  3.561782604E-01  1.846258393E+00  1.199078948E+01  1.303368963E+01  4.750000000E+00  0.00000E+00  9.000E+00
      -5     1     1     2     0   503  7.483768706E+01  9.326671954E+00 -2.484224369E+02  2.596611944E+02  4.750000000E+00  0.00000E+00  9.000E+00
      21     1     1     2   511   502  1.504018047E+01 -1.086447591E+01 -2.265559357E+02  2.273143987E+02  2.697398305E-06  0.00000E+00  9.000E+00
#rwgt            1           9   3.5014063019955360E-004          12      719283           0
</event>
<event>
      6   9999  3.45752E-01  9.87308E+00 -1.00000E+00  1.87780E-01
      21    -1     0     0   512   502  0.000000000E+00  0.000000000E+00  9.189876523E+01  9.189876523E+01  0.000000000E+00  0.00000E+00  9.000E+00
      21    -1     0     0   502   503  0.000000000E+00  0.000000000E+00 -8.137296848E+02  8.137296848E+02  0.000000000E+00  0.00000E+00  9.000E+00
      25     1     1     2     0     0 -7.166611934E+01 -1.209341945E+02 -6.445496502E+02  6.714378998E+02  1.249939585E+02  0.00000E+00  9.000E+00
       5     1     1     2   501     0  4.883098701E+00  4.736693308E-01  3.765603271E+01  3.827020140E+01  4.750000000E+00  0.00000E+00  9.000E+00
      -5     1     1     2     0   503  7.457054445E+01  1.265294698E+02 -1.140415004E+02  1.860067180E+02  4.750000000E+00  0.00000E+00  9.000E+00
      21     1     1     2   512   501 -7.787523816E+00 -6.068944569E+00 -8.958016359E-01  9.913630815E+00  1.890745393E-07  0.00000E+00  9.000E+00
#rwgt            1           9   2.0006497169706319E-004          12      721638           0
</event>
<event>
      6   9999  3.45752E-01  1.93689E+01 -1.00000E+00  1.61281E-01
      21    -1     0     0   501   511  0.000000000E+00  0.000000000E+00  2.142419285E+01  2.142419285E+01  0.000000000E+00  0.00000E+00  9.000E+00
      21    -1     0     0   502   503  0.000000000E+00  0.000000000E+00 -9.766917485E+02  9.766917485E+02  0.000000000E+00  0.00000E+00  9.000E+00
      25     1     1     2     0     0  7.247299258E+01  1.335414485E+00 -6.108360258E+02  6.276941781E+02  1.250008510E+02  0.00000E+00  9.000E+00
       5     1     1     2   501     0  1.707880809E+00  1.507862977E+00  7.487203395E+00  9.154846929E+00  4.750000000E+00  0.00000E+00  9.000E+00
      -5     1     1     2     0   503 -6.001786083E+01  1.036891083E+01 -2.909831191E+02  2.973270860E+02  4.750000000E+00  0.00000E+00  9.000E+00
      21     1     1     2   502   511 -1.416301256E+01 -1.321218830E+01 -6.093561413E+01  6.393983042E+01  9.536743164E-07  0.00000E+00  9.000E+00
#rwgt            1           9   3.2351418630722738E-003          12      725949           0
</event>
<event>
      6   9999  3.45752E-01  7.30577E+00 -1.00000E+00  2.02800E-01
      21    -1     0     0   501   502  0.000000000E+00  0.000000000E+00  3.278889076E+01  3.278889076E+01  0.000000000E+00  0.00000E+00  9.000E+00
      21    -1     0     0   502   512  0.000000000E+00  0.000000000E+00 -1.085525279E+03  1.085525279E+03  0.000000000E+00  0.00000E+00  9.000E+00
      25     1     1     2     0     0 -2.518182743E+01  1.663358033E+01 -3.482584057E+02  3.712411162E+02  1.250009952E+02  0.00000E+00  9.000E+00
       5     1     1     2   501     0 -9.901046911E-02 -2.953039710E+00  2.049527143E+01  2.124497347E+01  4.750000000E+00  0.00000E+00  9.000E+00
      -5     1     1     2     0   503  2.334519338E+01 -6.635854541E+00 -3.946812199E+02  3.954552572E+02  4.750000000E+00  0.00000E+00  9.000E+00
      21     1     1     2   503   512  1.935644520E+00 -7.044686080E+00 -3.302920336E+02  3.303728224E+02  5.394796609E-06  0.00000E+00  9.000E+00
#rwgt            1           9   3.5449050962679767               12      727853           0
</event>
<event>
      6   9999  3.45752E-01  7.24798E+00 -1.00000E+00  2.03230E-01
      21    -1     0     0   501   502  0.000000000E+00  0.000000000E+00  1.625921898E+03  1.625921898E+03  0.000000000E+00  0.00000E+00  9.000E+00
      21    -1     0     0   502   511  0.000000000E+00  0.000000000E+00 -2.012476865E+01  2.012476865E+01  0.000000000E+00  0.00000E+00  9.000E+00
      25     1     1     2     0     0 -1.431565038E+01 -7.820021899E+00  2.187537060E+02  2.524765799E+02  1.250005957E+02  0.00000E+00  9.000E+00
       5     1     1     2   501     0 -5.279639387E+00  7.737356612E+00  1.255118319E+03  1.255162259E+03  4.750000000E+00  0.00000E+00  9.000E+00
      -5     1     1     2     0   503  1.724964244E+01  6.940590503E+00  1.292732915E+02  1.306899703E+02  4.750000000E+00  0.00000E+00  9.000E+00
      21     1     1     2   503   511  2.345647329E+00 -6.857925216E+00  2.651812965E+00  7.717856675E+00  1.908279728E-07  0.00000E+00  9.000E+00
#rwgt            1           9   1.9663136215472993E-004          12      731688           0
</event>
<event>
      6   9999  3.45752E-01  8.52302E+00 -1.00000E+00  1.94814E-01
      21    -1     0     0   501   502  0.000000000E+00  0.000000000E+00  1.685656335E+01  1.685656335E+01  0.000000000E+00  0.00000E+00  9.000E+00
      21    -1     0     0   512   503  0.000000000E+00  0.000000000E+00 -1.880279370E+03  1.880279370E+03  0.000000000E+00  0.00000E+00  9.000E+00
      25     1     1     2     0     0  2.294672735E+00 -2.171522390E+01 -7.837294513E+02  7.939230990E+02  1.249208467E+02  0.00000E+00  9.000E+00
       5     1     1     2   501     0 -1.767220806E-01  2.326896447E+00  1.052002149E+01  1.177620609E+01  4.750000000E+00  0.00000E+00  9.000E+00
      -5     1     1     2     0   503  5.971158777E+00  1.670352163E+01 -1.417013499E+02  1.428863095E+02  4.750000000E+00  0.00000E+00  9.000E+00
      21     1     1     2   512   502 -8.089109431E+00  2.684805827E+00 -9.485120274E+02  9.485503192E+02  1.078959322E-05  0.00000E+00  9.000E+00
#rwgt            1           9   3.6397374662764650E-005          12      736170           0
</event>
<event>
      6   9999 -3.45752E-01  1.82104E+00 -1.00000E+00  3.49476E-01
      21    -1     0     0   501   511  0.000000000E+00  0.000000000E+00  6.595966462E+02  6.595966462E+02  0.000000000E+00  0.00000E+00  9.000E+00
      21    -1     0     0   502   503  0.000000000E+00  0.000000000E+00 -7.725676838E+02  7.725676838E+02  0.000000000E+00  0.00000E+00  9.000E+00
      25     1     1     2     0     0 -2.002344526E+00  2.995903912E-01 -7.193284922E+02  7.301108796E+02  1.249972707E+02  0.00000E+00  9.000E+00
       5     1     1     2   501     0 -1.100739390E+00 -9.459036065E-01  2.249224857E+00  5.452327328E+00  4.750000000E+00  0.00000E+00  9.000E+00
      -5     1     1     2     0   503  1.282073795E+00  6.561222642E-01 -4.611198637E+01  4.637835699E+01  4.750000000E+00  0.00000E+00  9.000E+00
      21     1     1     2   502   511  1.821010122E+00 -9.809048904E-03  6.502202161E+02  6.502227662E+02  7.629394531E-06  0.00000E+00  9.000E+00
#rwgt            1           9  -2.5128905855261215E-005          12      739868           0
</event>
<event>
      6   9999  3.45752E-01  1.86696E+01 -1.00000E+00  1.62526E-01
      21    -1     0     0   512   502  0.000000000E+00  0.000000000E+00  7.604489692E+01  7.604489692E+01  0.000000000E+00  0.00000E+00  9.000E+00
      21    -1     0     0   502   503  0.000000000E+00  0.000000000E+00 -1.542447995E+03  1.542447995E+03  0.000000000E+00  0.00000E+00  9.000E+00
      25     1     1     2     0     0 -7.899314913E+01 -1.128150912E+02 -3.159889372E+02  3.666616946E+02  1.249985096E+02  0.00000E+00  9.000E+00
       5     1     1     2   501     0 -9.587068885E+00 -8.235816016E+00  2.954324608E+01  3.248240207E+01  4.750000000E+00  0.00000E+00  9.000E+00
      -5     1     1     2     0   503  7.150540261E+01  1.135008442E+02 -1.190408802E+03  1.197952897E+03  4.750000000E+00  0.00000E+00  9.000E+00
      21     1     1     2   512   501  1.707481540E+01  7.550063023E+00  1.045139577E+01  2.139589788E+01  1.215700987E-06  0.00000E+00  9.000E+00
#rwgt            1           9   6.9732776910935660E-003          12      748541           0
</event>
<event>
      6   9999  3.45752E-01  4.15520E+00 -1.00000E+00  2.44477E-01
      21    -1     0     0   501   502  0.000000000E+00  0.000000000E+00  2.524352823E+01  2.524352823E+01  0.000000000E+00  0.00000E+00  9.000E+00
      21    -1     0     0   511   503  0.000000000E+00  0.000000000E+00 -1.139906054E+03  1.139906054E+03  0.000000000E+00  0.00000E+00  9.000E+00
      25     1     1     2     0     0 -4.622393670E+01  1.134862069E+02 -4.964242869E+02  5.263815198E+02  1.249986410E+02  0.00000E+00  9.000E+00
       5     1     1     2   501     0 -3.775235513E-01  3.362872490E-01  9.091448386E-01  4.862577247E+00  4.750000000E+00  0.00000E+00  9.000E+00
      -5     1     1     2     0   503  4.760269507E+01 -1.178552579E+02 -5.451647887E+02  5.598062948E+02  4.750000000E+00  0.00000E+00  9.000E+00
      21     1     1     2   511   502 -1.001234818E+00  4.032763701E+00 -7.398259533E+01  7.409919072E+01  9.536743164E-07  0.00000E+00  9.000E+00
#rwgt            1           9   5.6883889804862771E-005          12      751271           0
</event>
<event>
      6   9999  3.45752E-01  1.44775E+02 -1.00000E+00  1.13980E-01
      21    -1     0     0   512   502  0.000000000E+00  0.000000000E+00  2.768084847E+01  2.768084847E+01  0.000000000E+00  0.00000E+00  9.000E+00
       2    -1     0     0   501     0  0.000000000E+00  0.000000000E+00 -3.624646630E+03  3.624646630E+03  0.000000000E+00  0.00000E+00  9.000E+00
      25     1     1     2     0     0 -1.222576331E+01  6.137181627E+01 -2.198564098E+02  2.605327362E+02  1.249979863E+02  0.00000E+00  9.000E+00
       5     1     1     2   501     0 -2.562965827E+00  5.605847657E+00 -3.594510909E+02  3.595353162E+02  4.750000000E+00  0.00000E+00  9.000E+00
      -5     1     1     2     0   502 -1.049130181E+02  1.445525932E+01 -5.360637089E+02  5.464453846E+02  4.750000000E+00  0.00000E+00  9.000E+00
       2     1     1     2   512     0  1.197017473E+02 -8.143292325E+01 -2.481594572E+03  2.485814042E+03  3.051757812E-05  0.00000E+00  9.000E+00
#rwgt            1           3   2.9812726796820684E-004          12      757962           0
</event>
<event>
      6   9999  3.45752E-01  2.47686E+01 -1.00000E+00  1.53431E-01
      21    -1     0     0   502   503  0.000000000E+00  0.000000000E+00  2.993857382E+01  2.993857382E+01  0.000000000E+00  0.00000E+00  9.000E+00
       2    -1     0     0   501     0  0.000000000E+00  0.000000000E+00 -2.504772288E+03  2.504772288E+03  0.000000000E+00  0.00000E+00  9.000E+00
      25     1     1     2     0     0  6.436229183E+01 -1.313551214E+02 -4.984461666E+02  5.342929479E+02  1.249948023E+02  0.00000E+00  9.000E+00
       5     1     1     2   501     0 -8.164339975E+00  1.038585344E+02 -4.179855387E+02  4.307989377E+02  4.750000000E+00  0.00000E+00  9.000E+00
      -5     1     1     2     0   503 -3.143968188E+01  2.821098121E+01 -7.655124425E+01  8.756122746E+01  4.750000000E+00  0.00000E+00  9.000E+00
       2     1     1     2   502     0 -2.475826997E+01 -7.143941994E-01 -1.481850764E+03  1.482057748E+03  3.051757812E-05  0.00000E+00  9.000E+00
#rwgt            1           9   1.1530180431038844E-003          12      758530           0
</event>
<event>
      6   9999  3.45752E-01  1.20747E+02 -1.00000E+00  1.17056E-01
      21    -1     0     0   502   511  0.000000000E+00  0.000000000E+00  7.566338223E+02  7.566338223E+02  0.000000000E+00  0.00000E+00  9.000E+00
      21    -1     0     0   501   502  0.000000000E+00  0.000000000E+00 -1.655098245E+03  1.655098245E+03  0.000000000E+00  0.00000E+00  9.000E+00
      25     1     1     2     0     0  1.785491839E+02 -1.710943377E+02 -1.498607145E+02  3.150183228E+02  1.250009060E+02  0.00000E+00  9.000E+00
       5     1     1     2   501     0  3.762592154E+01 -3.796598842E+01 -3.085094207E+02  3.131417433E+02  4.750000000E+00  0.00000E+00  9.000E+00
      -5     1     1     2     0   503 -9.895308864E+01  1.800971992E+02 -1.096781567E+03  1.115875926E+03  4.750000000E+00  0.00000E+00  9.000E+00
      21     1     1     2   503   511 -1.172220168E+02  2.896312698E+01  6.566872800E+02  6.676960743E+02  7.629394531E-06  0.00000E+00  9.000E+00
#rwgt            1           9   8.3034926275346599E-004          12      760247           0
</event>
<event>
      6   9999  3.45752E-01  1.66843E+01 -1.00000E+00  1.66461E-01
      21    -1     0     0   502   503  0.000000000E+00  0.000000000E+00  9.713895881E+00  9.713895881E+00  0.000000000E+00  0.00000E+00  9.000E+00
      21    -1     0     0   501   512  0.000000000E+00  0.000000000E+00 -9.112663007E+02  9.112663007E+02  0.000000000E+00  0.00000E+00  9.000E+00
      25     1     1     2     0     0 -1.547220714E+01  1.589810997E+01 -6.661871498E+02  6.781668587E+02  1.249513131E+02  0.00000E+00  9.000E+00
       5     1     1     2   501     0  1.323740784E+01  1.076187263E+01 -6.447994335E+01  6.686757408E+01  4.750000000E+00  0.00000E+00  9.000E+00
      -5     1     1     2     0   503 -7.697043934E+00 -1.325384594E+01 -2.951860135E+01  3.359790534E+01  4.750000000E+00  0.00000E+00  9.000E+00
      21     1     1     2   502   512  9.931843229E+00 -1.340613666E+01 -1.413667104E+02  1.423478585E+02  1.907348633E-06  0.00000E+00  9.000E+00
#rwgt            1           9   4.0172549369673540E-003          12      761576           0
</event>
<event>
      6   9999  3.45752E-01  9.58495E+00 -1.00000E+00  1.89154E-01
      21    -1     0     0   501   502  0.000000000E+00  0.000000000E+00  8.357244297E+00  8.357244297E+00  0.000000000E+00  0.00000E+00  9.000E+00
      21    -1     0     0   502   511  0.000000000E+00  0.000000000E+00 -3.394233469E+03  3.394233469E+03  0.000000000E+00  0.00000E+00  9.000E+00
      25     1     1     2     0     0  8.610680764E+01 -2.605871983E+01 -1.587703764E+03  1.595155594E+03  1.249987424E+02  0.00000E+00  9.000E+00
       5     1     1     2   501     0  1.619842117E+00 -2.960236481E+00  3.150260719E-01  5.835120387E+00  4.750000000E+00  0.00000E+00  9.000E+00
      -5     1     1     2     0   503 -9.370924517E+01  2.153030814E+01 -1.632298457E+03  1.635134793E+03  4.750000000E+00  0.00000E+00  9.000E+00
      21     1     1     2   503   511  5.982595414E+00  7.488648170E+00 -1.661890294E+02  1.664652060E+02  2.697398305E-06  0.00000E+00  9.000E+00
#rwgt            1           9   1.1655381629918431E-003          12      763660           0
</event>
<event>
      6   9999  3.45752E-01  1.42072E+01 -1.00000E+00  1.72441E-01
      21    -1     0     0   501   512  0.000000000E+00  0.000000000E+00  1.626244844E+02  1.626244844E+02  0.000000000E+00  0.00000E+00  9.000E+00
      21    -1     0     0   502   503  0.000000000E+00  0.000000000E+00 -2.875017816E+02  2.875017816E+02  0.000000000E+00  0.00000E+00  9.000E+00
      25     1     1     2     0     0  2.274563756E+01 -2.566081726E+00 -2.487011300E+02  2.792844164E+02  1.249943373E+02  0.00000E+00  9.000E+00
       5     1     1     2   501     0 -1.498859983E+00  3.681118765E+00  1.343411707E+02  1.344838647E+02  4.750000000E+00  0.00000E+00  9.000E+00
      -5     1     1     2     0   503 -8.300814284E+00 -6.967057237E+00 -1.702362844E+01  2.073185543E+01  4.750000000E+00  0.00000E+00  9.000E+00
      21     1     1     2   502   512 -1.294596329E+01  5.852020198E+00  6.506290531E+00  1.562612948E+01  2.528810911E-07  0.00000E+00  9.000E+00
#rwgt            1           9   2.1834540474698096E-004          12      767285           0
</event>
<event>
      6   9999  3.45752E-01  2.06959E+01 -1.00000E+00  1.59085E-01
      21    -1     0     0   501   511  0.000000000E+00  0.000000000E+00  3.688765731E+01  3.688765731E+01  0.000000000E+00  0.00000E+00  9.000E+00
      21    -1     0     0   502   503  0.000000000E+00  0.000000000E+00 -1.775248640E+03  1.775248640E+03  0.000000000E+00  0.00000E+00  9.000E+00
      25     1     1     2     0     0  1.662336458E+01 -2.907697706E+01 -1.713018747E+03  1.717899980E+03  1.250012275E+02  0.00000E+00  9.000E+00
       5     1     1     2   501     0  8.227731960E-01 -2.258601436E+00 -9.011806245E+00  1.046677543E+01  4.750000000E+00  0.00000E+00  9.000E+00
      -5     1     1     2     0   503 -8.766447856E+00  1.254774311E+01 -4.536561191E+01  4.811338389E+01  4.750000000E+00  0.00000E+00  9.000E+00
      21     1     1     2   502   511 -8.679689924E+00  1.878783538E+01  2.903518251E+01  3.565615794E+01  2.050954167E-06  0.00000E+00  9.000E+00
#rwgt            1           9   2.9823327795525247E-005          12      770396           0
</event>
<event>
      6   9999 -3.45752E-01  4.55766E+00 -1.00000E+00  2.36674E-01
      21    -1     0     0   501   502  0.000000000E+00  0.000000000E+00  1.120855611E+01  1.120855611E+01  0.000000000E+00  0.00000E+00  9.000E+00
      21    -1     0     0   512   503  0.000000000E+00  0.000000000E+00 -8.677950402E+02  8.677950402E+02  0.000000000E+00  0.00000E+00  9.000E+00
      25     1     1     2     0     0  1.881589207E+01 -1.848084485E+01 -6.513641730E+02  6.637770065E+02  1.250161953E+02  0.00000E+00  9.000E+00
       5     1     1     2   501     0  9.805276035E-01  5.211920424E-01  1.791322068E+00  5.196576784E+00  4.750000000E+00  0.00000E+00  9.000E+00
      -5     1     1     2     0   503 -1.867554486E+01  2.237733360E+01 -1.529624746E+02  1.557870411E+02  4.750000000E+00  0.00000E+00  9.000E+00
      21     1     1     2   512   502 -1.120874822E+00 -4.417680788E+00 -5.405115854E+01  5.424297193E+01  0.000000000E+00  0.00000E+00  9.000E+00
#rwgt            1           9  -1.7384855767646760E-002          12      771821           0
</event>
<event>
      6   9999  3.45752E-01  1.06151E+02 -1.00000E+00  1.19344E-01
      21    -1     0     0   502   503  0.000000000E+00  0.000000000E+00  4.676983762E+01  4.676983762E+01  0.000000000E+00  0.00000E+00  9.000E+00
      21    -1     0     0   501   511  0.000000000E+00  0.000000000E+00 -1.843852826E+03  1.843852826E+03  0.000000000E+00  0.00000E+00  9.000E+00
      25     1     1     2     0     0  1.195097302E+02  3.330133282E+01 -6.539826002E+02  6.772814411E+02  1.250014184E+02  0.00000E+00  9.000E+00
       5     1     1     2   501     0 -1.377461435E+02 -5.354237140E+01 -2.067889147E+02  2.542144830E+02  4.750000000E+00  0.00000E+00  9.000E+00
      -5     1     1     2     0   503 -8.001572747E+01  6.042362004E+01 -3.992669035E+02  4.116918182E+02  4.750000000E+00  0.00000E+00  9.000E+00
      21     1     1     2   502   511  9.825214077E+01 -4.018258146E+01 -5.370445694E+02  5.474349209E+02  7.629394531E-06  0.00000E+00  9.000E+00
#rwgt            1           9   4.5908730768364929E-002          12      775959           0
</event>
<event>
      6   9999  3.45752E-01  6.80498E+00 -1.00000E+00  2.06715E-01
      21    -1     0     0   501   502  0.000000000E+00  0.000000000E+00  3.791897987E+01  3.791897987E+01  0.000000000E+00  0.00000E+00  9.000E+00
      21    -1     0     0   502   512  0.000000000E+00  0.000000000E+00 -3.078410254E+02  3.078410254E+02  0.000000000E+00  0.00000E+00  9.000E+00
      25     1     1     2     0     0 -5.273087724E+00 -8.600628451E-01 -2.715630017E+02  2.990012248E+02  1.250068934E+02  0.00000E+00  9.000E+00
       5     1     1     2   501     0 -3.532274782E+00 -1.836923635E+00  2.192028175E+01  2.277965113E+01  4.750000000E+00  0.00000E+00  9.000E+00
      -5     1     1     2     0   503  2.347160772E+00  5.523802808E-01 -5.241684286E+00  7.473422363E+00  4.750000000E+00  0.00000E+00  9.000E+00
      21     1     1     2   503   512  6.458201734E+00  2.144606199E+00 -1.503764132E+01  1.650570695E+01  2.384185791E-07  0.00000E+00  9.000E+00
#rwgt            1           9   1.5897066823427933E-004          12      777088           0
</event>
<event>
      6   9999  3.45752E-01  4.43583E+00 -1.00000E+00  2.38906E-01
      21    -1     0     0   501   511  0.000000000E+00  0.000000000E+00  7.032321919E+02  7.032321919E+02  0.000000000E+00  0.00000E+00  9.000E+00
      21    -1     0     0   502   503  0.000000000E+00  0.000000000E+00 -1.293479920E+03  1.293479920E+03  0.000000000E+00  0.00000E+00  9.000E+00
      25     1     1     2     0     0 -1.795936499E+00  1.390693644E+01 -1.187923882E+03  1.194564537E+03  1.249986225E+02  0.00000E+00  9.000E+00
       5     1     1     2   501     0 -4.496121911E-02 -9.329872998E+00  3.888811575E+01  4.027277739E+01  4.750000000E+00  0.00000E+00  9.000E+00
      -5     1     1     2     0   503  1.530716232E+00 -1.520916509E-01 -1.014745504E+02  1.015973085E+02  4.750000000E+00  0.00000E+00  9.000E+00
      21     1     1     2   502   511  3.101814860E-01 -4.424971788E+00  6.602625885E+02  6.602774890E+02  7.629394531E-06  0.00000E+00  9.000E+00
#rwgt            1           9   1.9734856025606151E-004          12      780484           0
</event>
<event>
      6   9999 -3.45752E-01  1.12342E+01 -1.00000E+00  1.82023E-01
      -1    -1     0     0     0   503  0.000000000E+00  0.000000000E+00  1.230839704E+01  1.230839704E+01  0.000000000E+00  0.00000E+00  9.000E+00
      21    -1     0     0   501   502  0.000000000E+00  0.000000000E+00 -7.327104714E+02  7.327104714E+02  0.000000000E+00  0.00000E+00  9.000E+00
      25     1     1     2     0     0  1.127942372E+01 -6.646171262E+00 -6.737385832E+02  6.853615941E+02  1.250017567E+02  0.00000E+00  9.000E+00
       5     1     1     2   501     0  1.964333606E+00  2.076609522E-02 -2.557524080E+01  2.608667246E+01  4.750000000E+00  0.00000E+00  9.000E+00
      -5     1     1     2     0   503 -9.969089192E+00 -4.120915762E+00 -1.866965121E+01  2.207901860E+01  4.750000000E+00  0.00000E+00  9.000E+00
      -1     1     1     2     0   502 -3.274668131E+00  1.074632093E+01 -2.418599156E+00  1.149158330E+01  2.457562462E-07  0.00000E+00  9.000E+00
#rwgt            1           9 -0.11554632679141646               12      787420           0
</event>
<event>
      6   9999 -3.45752E-01  7.81687E+00 -1.00000E+00  1.99213E-01
      21    -1     0     0   511   502  0.000000000E+00  0.000000000E+00  2.343792904E+01  2.343792904E+01  0.000000000E+00  0.00000E+00  9.000E+00
      21    -1     0     0   502   503  0.000000000E+00  0.000000000E+00 -8.120803329E+02  8.120803329E+02  0.000000000E+00  0.00000E+00  9.000E+00
      25     1     1     2     0     0 -9.939786743E+00  6.630038864E+00 -6.738346205E+02  6.854356082E+02  1.250044819E+02  0.00000E+00  9.000E+00
       5     1     1     2   501     0 -3.085652763E+00  1.512835533E+00  3.218470924E+00  6.688122264E+00  4.750000000E+00  0.00000E+00  9.000E+00
      -5     1     1     2     0   503  9.109008197E+00 -1.377883690E+00 -1.292786152E+02  1.296934672E+02  4.750000000E+00  0.00000E+00  9.000E+00
      21     1     1     2   511   501  3.916431308E+00 -6.764990707E+00  1.125236093E+01  1.370106419E+01  1.099055345E-06  0.00000E+00  9.000E+00
#rwgt            1           9  -1.5747154123698073E-004          12      790244           0
</event>
<event>
      6   9999 -3.45752E-01  5.76984E+00 -1.00000E+00  2.16452E-01
      21    -1     0     0   501   502  0.000000000E+00  0.000000000E+00  1.476623707E+01  1.476623707E+01  0.000000000E+00  0.00000E+00  9.000E+00
      21    -1     0     0   502   512  0.000000000E+00  0.000000000E+00 -2.347156501E+03  2.347156501E+03  0.000000000E+00  0.00000E+00  9.000E+00
      25     1     1     2     0     0 -1.442283193E+01 -9.900084533E+00 -2.283654642E+03  2.287139943E+03  1.249982658E+02  0.00000E+00  9.000E+00
       5     1     1     2   501     0  2.102924571E+00  5.199810574E+00  7.454771701E+00  1.046883197E+01  4.750000000E+00  0.00000E+00  9.000E+00
      -5     1     1     2     0   503  6.993880093E+00  6.919387687E+00 -3.740344877E+00  1.154750902E+01  4.750000000E+00  0.00000E+00  9.000E+00
      21     1     1     2   503   512  5.326027265E+00 -2.219113728E+00 -5.245004881E+01  5.276645386E+01  0.000000000E+00  0.00000E+00  9.000E+00
#rwgt            1           9  -5.0031184841183287E-003          12      793215           0
</event>
<event>
      6   9999  3.45752E-01  1.11253E+01 -1.00000E+00  1.82444E-01
      21    -1     0     0   501   502  0.000000000E+00  0.000000000E+00  1.874869902E+03  1.874869902E+03  0.000000000E+00  0.00000E+00  9.000E+00
      21    -1     0     0   511   503  0.000000000E+00  0.000000000E+00 -1.872376900E+01  1.872376900E+01  0.000000000E+00  0.00000E+00  9.000E+00
      25     1     1     2     0     0 -1.050596117E+02  5.005346297E+01  7.848056776E+02  8.031736872E+02  1.250005958E+02  0.00000E+00  9.000E+00
       5     1     1     2   501     0 -1.255359332E+00 -1.494280355E+00  6.707047846E+02  6.707244437E+02  4.750000000E+00  0.00000E+00  9.000E+00
      -5     1     1     2     0   503  1.009017959E+02 -3.883959023E+01  3.882300591E+02  4.030320428E+02  4.750000000E+00  0.00000E+00  9.000E+00
      21     1     1     2   511   502  5.413175170E+00 -9.719592391E+00  1.240561133E+01  1.666349705E+01  7.539457465E-07  0.00000E+00  9.000E+00
#rwgt            1           9   2.2287527901756983E-002          12      798375           0
</event>
<event>
      6   9999  3.45752E-01  1.11646E+01 -1.00000E+00  1.82291E-01
      21    -1     0     0   501   502  0.000000000E+00  0.000000000E+00  8.854195500E+01  8.854195500E+01  0.000000000E+00  0.00000E+00  9.000E+00
      21    -1     0     0   512   503  0.000000000E+00  0.000000000E+00 -8.531386698E+01  8.531386698E+01  0.000000000E+00  0.00000E+00  9.000E+00
      25     1     1     2     0     0 -9.825805353E+00  6.403188731E+00 -1.749326763E+01  1.267575593E+02  1.249956685E+02  0.00000E+00  9.000E+00
       5     1     1     2   501     0 -3.879265945E-01 -1.794370252E-01  2.017730935E+01  2.073328236E+01  4.750000000E+00  0.00000E+00  9.000E+00
      -5     1     1     2     0   503 -8.961120231E-01 -7.327958304E+00  8.837909282E+00  1.245685073E+01  4.750000000E+00  0.00000E+00  9.000E+00
      21     1     1     2   512   502  1.110984397E+01  1.104206598E+00 -8.293862981E+00  1.390812958E+01  2.064765462E-07  0.00000E+00  9.000E+00
#rwgt            1           9   2.5613424719868596E-005          12      801437           0
</event>
<event>
      6   9999  3.45752E-01  2.29539E+00 -1.00000E+00  3.11337E-01
      21    -1     0     0   501   502  0.000000000E+00  0.000000000E+00  8.502563735E+00  8.502563735E+00  0.000000000E+00  0.00000E+00  9.000E+00
      21    -1     0     0   511   503  0.000000000E+00  0.000000000E+00 -8.480443458E+02  8.480443458E+02  0.000000000E+00  0.00000E+00  9.000E+00
      25     1     1     2     0     0 -1.294774276E+00  7.260638454E-01 -6.731947235E+02  6.847025880E+02  1.249971786E+02  0.00000E+00  9.000E+00
       5     1     1     2   501     0  5.920142194E-01 -7.169891774E-01  4.236818480E-01  4.858658315E+00  4.750000000E+00  0.00000E+00  9.000E+00
      -5     1     1     2     0   503 -1.520024298E+00 -5.818185190E-01 -6.674842835E+01  6.693701647E+01  4.750000000E+00  0.00000E+00  9.000E+00
      21     1     1     2   511   502  2.222784354E+00  5.727438509E-01 -1.000223120E+02  1.000486467E+02  0.000000000E+00  0.00000E+00  9.000E+00
#rwgt            1           9   2.0986373905909849E-003          12      803862           0
</event>
<event>
      6   9999  3.45752E-01  5.70701E+01 -1.00000E+00  1.31784E-01
      21    -1     0     0   501   512  0.000000000E+00  0.000000000E+00  2.829046364E+02  2.829046364E+02  0.000000000E+00  0.00000E+00  9.000E+00
      21    -1     0     0   502   503  0.000000000E+00  0.000000000E+00 -3.133804085E+02  3.133804085E+02  0.000000000E+00  0.00000E+00  9.000E+00
      25     1     1     2     0     0 -1.880008581E+02  1.910435328E+01 -1.011565354E+02  2.481273217E+02  1.250008967E+02  0.00000E+00  9.000E+00
       5     1     1     2   501     0  2.102187359E+02 -5.957063470E+01  4.468195064E+01  2.230686366E+02  4.750000000E+00  0.00000E+00  9.000E+00
      -5     1     1     2     0   503  3.468816569E+01  3.614184858E+01 -1.755955255E+01  5.329542610E+01  4.750000000E+00  0.00000E+00  9.000E+00
      21     1     1     2   502   512 -5.690604347E+01  4.324432841E+00  4.355836522E+01  7.179366046E+01  9.536743164E-07  0.00000E+00  9.000E+00
#rwgt            1           9   2.8336499405723803E-002          12      810709           0
</event>
<event>
      6   9999 -3.45752E-01  1.37971E+01 -1.00000E+00  1.73579E-01
      21    -1     0     0   511   502  0.000000000E+00  0.000000000E+00  1.579045859E+01  1.579045859E+01  0.000000000E+00  0.00000E+00  9.000E+00
      21    -1     0     0   502   503  0.000000000E+00  0.000000000E+00 -9.228198758E+02  9.228198758E+02  0.000000000E+00  0.00000E+00  9.000E+00
      25     1     1     2     0     0  1.458419443E+01  6.618732882E+00 -8.553577107E+02  8.645763473E+02  1.248957194E+02  0.00000E+00  9.000E+00
       5     1     1     2   501     0  2.641446833E+00 -5.403904109E+00  7.075180884E+00  1.043072891E+01  4.750000000E+00  0.00000E+00  9.000E+00
      -5     1     1     2     0   503 -5.163915366E+00 -7.913618614E+00 -2.503256098E+01  2.717504353E+01  4.750000000E+00  0.00000E+00  9.000E+00
      21     1     1     2   511   501 -1.206172589E+01  6.698789841E+00 -3.371432640E+01  3.642821463E+01  8.259061849E-07  0.00000E+00  9.000E+00
#rwgt            1           9  -1.2402709725009922E-005          12      811764           0
</event>
<event>
      6   9999  3.45752E-01  1.36361E+01 -1.00000E+00  1.74039E-01
      21    -1     0     0   501   512  0.000000000E+00  0.000000000E+00  2.013790329E+01  2.013790329E+01  0.000000000E+00  0.00000E+00  9.000E+00
      21    -1     0     0   502   503  0.000000000E+00  0.000000000E+00 -8.420799770E+02  8.420799770E+02  0.000000000E+00  0.00000E+00  9.000E+00
      25     1     1     2     0     0  8.745653200E+00  3.318078481E+00 -7.990564418E+02  8.088281996E+02  1.249974529E+02  0.00000E+00  9.000E+00
       5     1     1     2   501     0  3.540075707E+00  1.477419992E+00  6.300786931E+00  8.773672082E+00  4.750000000E+00  0.00000E+00  9.000E+00
      -5     1     1     2     0   503  1.460770158E-01  8.074341550E-01 -3.053524785E+01  3.091338140E+01  4.750000000E+00  0.00000E+00  9.000E+00
      21     1     1     2   502   512 -1.243180592E+01 -5.602932628E+00  1.348828994E+00  1.370262720E+01  5.951143964E-07  0.00000E+00  9.000E+00
#rwgt            1           9  0.15227007049531863               12      813821           0
</event>
<event>
      6   9999  3.45752E-01  1.48121E+01 -1.00000E+00  1.70847E-01
      21    -1     0     0   501   511  0.000000000E+00  0.000000000E+00  1.390511802E+02  1.390511802E+02  0.000000000E+00  0.00000E+00  9.000E+00
      21    -1     0     0   502   503  0.000000000E+00  0.000000000E+00 -7.241068322E+02  7.241068322E+02  0.000000000E+00  0.00000E+00  9.000E+00
      25     1     1     2     0     0  6.259776984E+00 -4.233728383E+01 -5.330095796E+02  5.491410937E+02  1.250003939E+02  0.00000E+00  9.000E+00
       5     1     1     2   501     0 -8.295310694E+00  2.310409477E+01 -9.619319102E+01  9.938965677E+01  4.750000000E+00  0.00000E+00  9.000E+00
      -5     1     1     2     0   503 -6.533641210E+00  7.151435626E+00 -8.447194218E+01  8.515810598E+01  4.750000000E+00  0.00000E+00  9.000E+00
      21     1     1     2   502   511  8.569174921E+00  1.208175343E+01  1.286190608E+02  1.294691559E+02  2.697398305E-06  0.00000E+00  9.000E+00
#rwgt            1           9   1.0859626740003037E-004          12      816213           0
</event>
<event>
      6   9999  3.45752E-01  6.60849E+00 -1.00000E+00  2.08376E-01
      21    -1     0     0   501   512  0.000000000E+00  0.000000000E+00  6.378125095E+01  6.378125095E+01  0.000000000E+00  0.00000E+00  9.000E+00
      21    -1     0     0   502   503  0.000000000E+00  0.000000000E+00 -5.904140703E+02  5.904140703E+02  0.000000000E+00  0.00000E+00  9.000E+00
      25     1     1     2     0     0 -5.376984044E+01  2.447207594E+00 -5.026536382E+02  5.207425954E+02  1.249599382E+02  0.00000E+00  9.000E+00
       5     1     1     2   501     0 -2.504125451E+00  2.318263515E+00  8.582195906E+00  1.038564281E+01  4.750000000E+00  0.00000E+00  9.000E+00
      -5     1     1     2     0   503  5.168418370E+01 -1.088516637E-02 -6.882765529E+01  8.620361707E+01  4.750000000E+00  0.00000E+00  9.000E+00
      21     1     1     2   502   512  4.589782192E+00 -4.754585942E+00  3.626627819E+01  3.686346595E+01  0.000000000E+00  0.00000E+00  9.000E+00
#rwgt            1           9   3.2048790637962078E-005          12      817732           0
</event>
<event>
      6   9999  3.45752E-01  3.53179E+00 -1.00000E+00  2.59599E-01
      21    -1     0     0   501   502  0.000000000E+00  0.000000000E+00  2.622886973E+00  2.622886973E+00  0.000000000E+00  0.00000E+00  9.000E+00
      21    -1     0     0   502   511  0.000000000E+00  0.000000000E+00 -2.555408340E+03  2.555408340E+03  0.000000000E+00  0.00000E+00  9.000E+00
      25     1     1     2     0     0  1.323690008E+01 -8.634970798E+00 -1.901573925E+03  1.905743591E+03  1.250018570E+02  0.00000E+00  9.000E+00
       5     1     1     2   501     0 -1.210921583E-01 -5.982499875E-01 -1.337234422E+01  1.420403662E+01  4.750000000E+00  0.00000E+00  9.000E+00
      -5     1     1     2     0   503 -9.885432307E+00  7.805559308E+00 -4.196987472E+02  4.199145740E+02  4.750000000E+00  0.00000E+00  9.000E+00
      21     1     1     2   503   511 -3.230375615E+00  1.427661477E+00 -2.181404365E+02  2.181690252E+02  2.697398305E-06  0.00000E+00  9.000E+00
#rwgt            1           9   6.6622506352288465E-004          12      821745           0
</event>
<event>
      6   9999  3.45752E-01  1.89984E+01 -1.00000E+00  1.61932E-01
      21    -1     0     0   502   503  0.000000000E+00  0.000000000E+00  1.304731263E+01  1.304731263E+01  0.000000000E+00  0.00000E+00  9.000E+00
      21    -1     0     0   512   502  0.000000000E+00  0.000000000E+00 -9.215675819E+02  9.215675819E+02  0.000000000E+00  0.00000E+00  9.000E+00
      25     1     1     2     0     0  5.428059323E+01 -3.517281846E+01 -5.195676751E+02  5.382923515E+02  1.249983067E+02  0.00000E+00  9.000E+00
       5     1     1     2   501     0 -3.721337005E+01  3.454738066E+01 -2.641834451E+02  2.690609812E+02  4.750000000E+00  0.00000E+00  9.000E+00
      -5     1     1     2     0   503  1.720381687E+00 -2.196971037E+00 -4.078409525E+01  4.115448117E+01  4.750000000E+00  0.00000E+00  9.000E+00
      21     1     1     2   512   501 -1.878760486E+01  2.822408834E+00 -8.398505380E+01  8.610708072E+01  1.907348633E-06  0.00000E+00  9.000E+00
#rwgt            1           9   3.6262089101643871E-004          12      826399           0
</event>
<event>
      6   9999 -3.45752E-01  8.77548E+00 -1.00000E+00  1.93374E-01
      21    -1     0     0   501   502  0.000000000E+00  0.000000000E+00  9.151243515E+02  9.151243515E+02  0.000000000E+00  0.00000E+00  9.000E+00
      21    -1     0     0   511   503  0.000000000E+00  0.000000000E+00 -1.273585701E+02  1.273585701E+02  0.000000000E+00  0.00000E+00  9.000E+00
      25     1     1     2     0     0 -4.381607947E+00 -2.824040926E+01  6.793002351E+01  1.451015272E+02  1.249929833E+02  0.00000E+00  9.000E+00
       5     1     1     2   501     0  5.405206153E+00  6.503504071E+00  7.523174226E+02  7.523799430E+02  4.750000000E+00  0.00000E+00  9.000E+00
      -5     1     1     2     0   503  7.039830650E+00  1.827421750E+01  5.422686078E+01  5.784998851E+01  4.750000000E+00  0.00000E+00  9.000E+00
      21     1     1     2   511   502 -8.063428856E+00  3.462687689E+00 -8.670852551E+01  8.715146290E+01  2.132480600E-06  0.00000E+00  9.000E+00
#rwgt            1           9  -2.7532493927765541E-004          12      827792           0
</event>
<event>
      6   9999  3.45752E-01  1.14487E+01 -1.00000E+00  1.81210E-01
      21    -1     0     0   501   502  0.000000000E+00  0.000000000E+00  1.210805303E+01  1.210805303E+01  0.000000000E+00  0.00000E+00  9.000E+00
      21    -1     0     0   512   503  0.000000000E+00  0.000000000E+00 -3.023004912E+03  3.023004912E+03  0.000000000E+00  0.00000E+00  9.000E+00
      25     1     1     2     0     0  6.527904527E+00 -7.905832991E+00 -8.951821250E+02  9.039255144E+02  1.250007315E+02  0.00000E+00  9.000E+00
       5     1     1     2   501     0  2.756832367E+00 -6.379865649E-01  6.439627313E+00  8.487546848E+00  4.750000000E+00  0.00000E+00  9.000E+00
      -5     1     1     2     0   503 -1.649830125E+00  1.266352588E-02 -2.432428374E+01  2.483858650E+01  4.750000000E+00  0.00000E+00  9.000E+00
      21     1     1     2   512   502 -7.634906769E+00  8.531156030E+00 -2.097830077E+03  2.097861317E+03  3.051757812E-05  0.00000E+00  9.000E+00
#rwgt            1           9   1.0818512896844219E-002          12      831543           0
</event>
<event>
      6   9999  3.45752E-01  1.67049E+01 -1.00000E+00  1.66417E-01
      21    -1     0     0   501   511  0.000000000E+00  0.000000000E+00  3.473255621E+01  3.473255621E+01  0.000000000E+00  0.00000E+00  9.000E+00
      21    -1     0     0   502   503  0.000000000E+00  0.000000000E+00 -1.161992613E+03  1.161992613E+03  0.000000000E+00  0.00000E+00  9.000E+00
      25     1     1     2     0     0  6.540721762E+01  2.599302311E+01 -2.126300486E+02  2.564970185E+02  1.250017662E+02  0.00000E+00  9.000E+00
       5     1     1     2   501     0 -1.314815577E+00 -1.898898311E+00  6.297777687E+00  8.219431768E+00  4.750000000E+00  0.00000E+00  9.000E+00
      -5     1     1     2     0   503 -7.999717995E+01 -2.920214756E+01 -9.047255412E+02  9.087371356E+02  4.750000000E+00  0.00000E+00  9.000E+00
      21     1     1     2   502   511  1.590477791E+01  5.108022764E+00 -1.620224454E+01  2.327158321E+01  3.371747881E-07  0.00000E+00  9.000E+00
#rwgt            1           9   6.1292795833145931E-004          12      834517           0
</event>
<event>
      6   9999  3.45752E-01  3.14419E+00 -1.00000E+00  2.71686E-01
      21    -1     0     0   512   502  0.000000000E+00  0.000000000E+00  1.735675229E+02  1.735675229E+02  0.000000000E+00  0.00000E+00  9.000E+00
      21    -1     0     0   502   503  0.000000000E+00  0.000000000E+00 -8.843504687E+02  8.843504687E+02  0.000000000E+00  0.00000E+00  9.000E+00
      25     1     1     2     0     0  4.606082253E+00  1.954768656E+00 -8.205284168E+02  8.300244032E+02  1.250943248E+02  0.00000E+00  9.000E+00
       5     1     1     2   501     0 -1.078609958E+00 -1.594785797E+00  8.610275663E+00  1.002028384E+01  4.750000000E+00  0.00000E+00  9.000E+00
      -5     1     1     2     0   503 -4.007308040E+00  2.747382338E+00 -5.815574135E+01  5.855133969E+01  4.750000000E+00  0.00000E+00  9.000E+00
      21     1     1     2   512   501  4.798357451E-01 -3.107365197E+00  1.592909367E+02  1.593219648E+02  3.303624740E-06  0.00000E+00  9.000E+00
#rwgt            1           9   2.7057774274042242E-004          12      836991           0
</event>
<event>
      6   9999  3.45752E-01  1.01468E+01 -1.00000E+00  1.86529E-01
      21    -1     0     0   501   511  0.000000000E+00  0.000000000E+00  1.467303863E+01  1.467303863E+01  0.000000000E+00  0.00000E+00  9.000E+00
      21    -1     0     0   502   503  0.000000000E+00  0.000000000E+00 -8.336301483E+02  8.336301483E+02  0.000000000E+00  0.00000E+00  9.000E+00
      25     1     1     2     0     0  2.700771826E+01 -1.362278714E+01 -4.770286836E+02  4.940615005E+02  1.250016165E+02  0.00000E+00  9.000E+00
       5     1     1     2   501     0 -6.757603750E-01  2.389063218E-01  1.671491972E+00  5.086267170E+00  4.750000000E+00  0.00000E+00  9.000E+00
      -5     1     1     2     0   503 -3.174770770E+01  4.803242665E+00 -3.326391280E+02  3.342190002E+02  4.750000000E+00  0.00000E+00  9.000E+00
      21     1     1     2   502   511  5.415749808E+00  8.580638158E+00 -1.096078998E+01  1.493641906E+01  3.769728732E-07  0.00000E+00  9.000E+00
#rwgt            1           9   9.7812447193986493E-004          12      843499           0
</event>
<event>
      6   9999  3.45752E-01  1.02619E+02 -1.00000E+00  1.19960E-01
      -4    -1     0     0     0   502  0.000000000E+00  0.000000000E+00  3.898843249E+01  3.898843249E+01  0.000000000E+00  0.00000E+00  9.000E+00
      21    -1     0     0   501   512  0.000000000E+00  0.000000000E+00 -1.094459328E+03  1.094459328E+03  0.000000000E+00  0.00000E+00  9.000E+00
      25     1     1     2     0     0 -1.906623057E+01  1.032932451E+02 -8.335793980E+02  8.493235336E+02  1.243496535E+02  0.00000E+00  9.000E+00
       5     1     1     2   501     0 -3.692526944E+01  4.133405599E+00 -4.145759635E+01  5.587356585E+01  4.750000000E+00  0.00000E+00  9.000E+00
      -5     1     1     2     0   502  7.940032262E+00 -1.675279451E+01 -8.826714825E+01  9.031806129E+01  4.750000000E+00  0.00000E+00  9.000E+00
      -4     1     1     2     0   512  4.805146775E+01 -9.067385614E+01 -9.216675302E+01  1.379325999E+02  1.348699152E-06  0.00000E+00  9.000E+00
#rwgt            1           5   6.1255920963629125E-006          12      846172           0
</event>
<event>
      6   9999 -3.45752E-01  3.85041E+00 -1.00000E+00  2.51327E-01
      21    -1     0     0   501   511  0.000000000E+00  0.000000000E+00  6.275822077E+02  6.275822077E+02  0.000000000E+00  0.00000E+00  9.000E+00
      21    -1     0     0   502   503  0.000000000E+00  0.000000000E+00 -1.220155030E+03  1.220155030E+03  0.000000000E+00  0.00000E+00  9.000E+00
      25     1     1     2     0     0 -6.636410082E+01  1.867208597E+01 -1.770656111E+02  2.274445488E+02  1.250038058E+02  0.00000E+00  9.000E+00
       5     1     1     2   501     0  1.523066159E+00  1.746917420E+00  1.139813031E+01  1.256388975E+01  4.750000000E+00  0.00000E+00  9.000E+00
      -5     1     1     2     0   503  6.134163944E+01 -2.202520298E+01 -1.016261331E+03  1.018360232E+03  4.750000000E+00  0.00000E+00  9.000E+00
      21     1     1     2   502   511  3.499395221E+00  1.606199588E+00  5.893559896E+02  5.893685673E+02  0.000000000E+00  0.00000E+00  9.000E+00
#rwgt            1           9 -0.46073590864158265               12      846371           0
</event>
<event>
      6   9999  3.45752E-01  1.40150E+01 -1.00000E+00  1.72968E-01
      21    -1     0     0   501   502  0.000000000E+00  0.000000000E+00  2.402795784E+02  2.402795784E+02  0.000000000E+00  0.00000E+00  9.000E+00
      21    -1     0     0   512   503  0.000000000E+00  0.000000000E+00 -4.443246547E+02  4.443246547E+02  0.000000000E+00  0.00000E+00  9.000E+00
      25     1     1     2     0     0 -3.371215879E+01 -2.097194465E+02 -1.897829830E+02  3.110666065E+02  1.250043885E+02  0.00000E+00  9.000E+00
       5     1     1     2   501     0  3.278057328E+00 -8.135120856E-01  1.016572099E+02  1.018241537E+02  4.750000000E+00  0.00000E+00  9.000E+00
      -5     1     1     2     0   503  1.816881891E+01  2.037519132E+02 -5.879519016E+01  2.128952442E+02  4.750000000E+00  0.00000E+00  9.000E+00
      21     1     1     2   512   502  1.226528255E+01  6.781045383E+00 -5.712411305E+01  5.881822867E+01  6.743495762E-07  0.00000E+00  9.000E+00
#rwgt            1           9   2.4970507746950407E-002          12      853077           0
</event>
<event>
      6   9999  3.45752E-01  1.00589E+01 -1.00000E+00  1.86925E-01
      -1    -1     0     0     0   502  0.000000000E+00  0.000000000E+00  2.254098557E+02  2.254098557E+02  0.000000000E+00  0.00000E+00  9.000E+00
      21    -1     0     0   502   503  0.000000000E+00  0.000000000E+00 -1.707519927E+03  1.707519927E+03  0.000000000E+00  0.00000E+00  9.000E+00
      25     1     1     2     0     0 -5.183017012E+00 -3.564567389E+00 -1.661350386E+03  1.666057849E+03  1.249963195E+02  0.00000E+00  9.000E+00
       5     1     1     2   501     0 -3.111390420E+00  4.706795567E-01  9.320579472E-01  5.773518997E+00  4.750000000E+00  0.00000E+00  9.000E+00
      -5     1     1     2     0   503  1.286081760E-01 -2.779955355E+00 -4.109630022E+01  4.146339450E+01  4.750000000E+00  0.00000E+00  9.000E+00
      -1     1     1     2     0   501  8.165799255E+00  5.873843187E+00  2.194045573E+02  2.196350202E+02  3.814697266E-06  0.00000E+00  9.000E+00
#rwgt            1           9   1.0007771361657061E-002          12      857139           0
</event>
<event>
      6   9999  3.45752E-01  7.69360E+00 -1.00000E+00  2.00045E-01
      21    -1     0     0   501   511  0.000000000E+00  0.000000000E+00  1.167162257E+02  1.167162257E+02  0.000000000E+00  0.00000E+00  9.000E+00
      21    -1     0     0   502   503  0.000000000E+00  0.000000000E+00 -6.774557590E+02  6.774557590E+02  0.000000000E+00  0.00000E+00  9.000E+00
      25     1     1     2     0     0  9.617970154E+01 -3.130578718E+01 -5.113152826E+00  1.608817294E+02  1.250047969E+02  0.00000E+00  9.000E+00
       5     1     1     2   501     0  1.094540418E+01  1.403508150E+01  1.667502011E+01  2.484761923E+01  4.750000000E+00  0.00000E+00  9.000E+00
      -5     1     1     2     0   503 -1.081301446E+02  9.643036996E+00 -5.842293142E+02  5.942487445E+02  4.750000000E+00  0.00000E+00  9.000E+00
      21     1     1     2   502   511  1.005038863E+00  7.627668681E+00  1.192791358E+01  1.419389147E+01  2.920019320E-07  0.00000E+00  9.000E+00
#rwgt            1           9   4.4911230821042700               12      859748           0
</event>
<event>
      6   9999 -3.45752E-01  2.79922E+00 -1.00000E+00  2.85024E-01
      21    -1     0     0   501   512  0.000000000E+00  0.000000000E+00  1.248227723E+01  1.248227723E+01  0.000000000E+00  0.00000E+00  9.000E+00
      21    -1     0     0   502   503  0.000000000E+00  0.000000000E+00 -8.735148365E+02  8.735148365E+02  0.000000000E+00  0.00000E+00  9.000E+00
      25     1     1     2     0     0 -4.142494243E+00 -8.734994763E+00 -8.458388223E+02  8.550801962E+02  1.250014727E+02  0.00000E+00  9.000E+00
       5     1     1     2   501     0  1.916281707E+00  3.943412360E-01  4.848242313E+00  7.063681343E+00  4.750000000E+00  0.00000E+00  9.000E+00
      -5     1     1     2     0   503  2.617315609E-01  6.346551214E+00 -1.943191762E+01  2.098830956E+01  4.750000000E+00  0.00000E+00  9.000E+00
      21     1     1     2   502   512  1.964480975E+00  1.994102313E+00 -6.100616693E-01  2.864926662E+00  9.453726963E-08  0.00000E+00  9.000E+00
#rwgt            1           9  -5.7809649842271813E-006          12      864813           0
</event>
<event>
      6   9999  3.45752E-01  5.25690E+01 -1.00000E+00  1.33633E-01
      21    -1     0     0   501   502  0.000000000E+00  0.000000000E+00  2.911835520E+03  2.911835520E+03  0.000000000E+00  0.00000E+00  9.000E+00
      21    -1     0     0   502   511  0.000000000E+00  0.000000000E+00 -1.181955034E+02  1.181955034E+02  0.000000000E+00  0.00000E+00  9.000E+00
      25     1     1     2     0     0  1.656229453E+02  3.692090836E+01  1.040042649E+03  1.061182046E+03  1.249980369E+02  0.00000E+00  9.000E+00
       5     1     1     2   501     0  1.797754608E+00 -1.252544217E+00  1.727462283E+03  1.727470203E+03  4.750000000E+00  0.00000E+00  9.000E+00
      -5     1     1     2     0   503 -1.383634319E+02 -7.947680069E+01  6.864840480E+01  1.737704438E+02  4.750000000E+00  0.00000E+00  9.000E+00
      21     1     1     2   503   511 -2.905726795E+01  4.380843654E+01 -4.251332045E+01  6.760833047E+01  4.447640921E-06  0.00000E+00  9.000E+00
#rwgt            1           9   1.2245465794699721E-002          12      871581           0
</event>
<event>
      6   9999  3.45752E-01  1.38450E+02 -1.00000E+00  1.14722E-01
      21    -1     0     0   502   512  0.000000000E+00  0.000000000E+00  1.777090079E+02  1.777090079E+02  0.000000000E+00  0.00000E+00  9.000E+00
      21    -1     0     0   501   502  0.000000000E+00  0.000000000E+00 -1.228660620E+03  1.228660620E+03  0.000000000E+00  0.00000E+00  9.000E+00
      25     1     1     2     0     0  1.080087492E+01  1.874554913E+02 -4.968031167E+02  5.456136956E+02  1.249989918E+02  0.00000E+00  9.000E+00
       5     1     1     2   501     0  1.613035177E+01 -4.000143607E+01 -3.986447356E+02  4.009993651E+02  4.750000000E+00  0.00000E+00  9.000E+00
      -5     1     1     2     0   503  6.535318159E+01 -4.424513018E+01 -2.692214881E+02  2.805912365E+02  4.750000000E+00  0.00000E+00  9.000E+00
      21     1     1     2   503   512 -9.228440829E+01 -1.032089250E+02  1.137177278E+02  1.791653310E+02  6.325959759E-06  0.00000E+00  9.000E+00
#rwgt            1           9   1.5894463200609953E-004          12      873539           0
</event>
<event>
      6   9999  3.45752E-01  1.17414E+01 -1.00000E+00  1.80137E-01
      21    -1     0     0   502   503  0.000000000E+00  0.000000000E+00  8.476627956E+00  8.476627956E+00  0.000000000E+00  0.00000E+00  9.000E+00
       2    -1     0     0   501     0  0.000000000E+00  0.000000000E+00 -2.518757397E+03  2.518757397E+03  0.000000000E+00  0.00000E+00  9.000E+00
      25     1     1     2     0     0  8.263403559E+00  1.456230354E+01 -5.879298535E+02  6.013039073E+02  1.249981267E+02  0.00000E+00  9.000E+00
       5     1     1     2   501     0  5.636213822E+00 -1.708318299E+01 -8.272306923E+01  8.478956734E+01  4.750000000E+00  0.00000E+00  9.000E+00
      -5     1     1     2     0   503 -1.013307921E+01 -8.599992644E+00 -6.684305018E+01  6.831687219E+01  4.750000000E+00  0.00000E+00  9.000E+00
       2     1     1     2   502     0 -3.766538173E+00  1.112087210E+01 -1.772784796E+03  1.772823678E+03  2.157918644E-05  0.00000E+00  9.000E+00
#rwgt            1           9   1.9790674318457966E-002          12      873923           0
</event>
<event>
      6   9999  3.45752E-01  7.80281E+00 -1.00000E+00  1.99307E-01
      21    -1     0     0   502   503  0.000000000E+00  0.000000000E+00  2.853588034E+03  2.853588034E+03  0.000000000E+00  0.00000E+00  9.000E+00
      21    -1     0     0   501   511  0.000000000E+00  0.000000000E+00 -6.095331387E+01  6.095331387E+01  0.000000000E+00  0.00000E+00  9.000E+00
      25     1     1     2     0     0 -1.177070171E+01  1.045786098E+00  2.522616386E+03  2.525739056E+03  1.249988089E+02  0.00000E+00  9.000E+00
       5     1     1     2   501     0  1.579175112E+01 -1.919618352E+00  1.001987068E+02  1.015647955E+02  4.750000000E+00  0.00000E+00  9.000E+00
      -5     1     1     2     0   503 -1.498214332E+00 -6.509879973E+00  2.281953927E+02  2.283425561E+02  4.750000000E+00  0.00000E+00  9.000E+00
      21     1     1     2   502   511 -2.522835080E+00  7.383712227E+00 -5.837576609E+01  5.889494010E+01  2.523185073E-06  0.00000E+00  9.000E+00
#rwgt            1           9   37.131572255262725               12      875916           0
</event>
<event>
      6   9999  3.45752E-01  3.52882E+01 -1.00000E+00  1.43417E-01
       2    -1     0     0   502     0  0.000000000E+00  0.000000000E+00  2.677971557E+02  2.677971557E+02  0.000000000E+00  0.00000E+00  9.000E+00
      21    -1     0     0   501   502  0.000000000E+00  0.000000000E+00 -9.143838476E+02  9.143838476E+02  0.000000000E+00  0.00000E+00  9.000E+00
      25     1     1     2     0     0 -5.012951588E+01 -8.781043222E+00 -3.060509093E+02  3.344883387E+02  1.250008582E+02  0.00000E+00  9.000E+00
       5     1     1     2   501     0  1.201485784E+01 -1.438514034E+00 -3.060010473E+02  3.062770471E+02  4.750000000E+00  0.00000E+00  9.000E+00
      -5     1     1     2     0   503  9.672129442E+00  3.110681166E+01 -2.857973506E+02  2.876871077E+02  4.750000000E+00  0.00000E+00  9.000E+00
       2     1     1     2   503     0  2.844252859E+01 -2.088725440E+01  2.512626153E+02  2.537285098E+02  3.814697266E-06  0.00000E+00  9.000E+00
#rwgt            1           9   7.3920633921373258E-004          12      878564           0
</event>
<event>
      6   9999  3.45752E-01  3.32723E+01 -1.00000E+00  1.44987E-01
      21    -1     0     0   511   502  0.000000000E+00  0.000000000E+00  3.253218670E+01  3.253218670E+01  0.000000000E+00  0.00000E+00  9.000E+00
      21    -1     0     0   502   503  0.000000000E+00  0.000000000E+00 -1.193294179E+03  1.193294179E+03  0.000000000E+00  0.00000E+00  9.000E+00
      25     1     1     2     0     0  1.604699489E+01 -3.407317024E+01 -8.910749302E+02  9.005875968E+02  1.250000053E+02  0.00000E+00  9.000E+00
       5     1     1     2   501     0 -4.895183886E+00 -5.397080365E+00  2.299447609E+01  2.458454255E+01  4.750000000E+00  0.00000E+00  9.000E+00
      -5     1     1     2     0   503 -1.609919861E+01  6.567842011E+00 -2.197911932E+02  2.205290273E+02  4.750000000E+00  0.00000E+00  9.000E+00
      21     1     1     2   511   501  4.947387601E+00  3.290240859E+01 -7.289034477E+01  8.012519888E+01  9.536743164E-07  0.00000E+00  9.000E+00
#rwgt            1           9   1.2583068459468143E-002          12      879702           0
</event>
<event>
      6   9999  3.45752E-01  1.61398E+01 -1.00000E+00  1.67660E-01
      21    -1     0     0   501   502  0.000000000E+00  0.000000000E+00  2.100131559E+02  2.100131559E+02  0.000000000E+00  0.00000E+00  9.000E+00
      21    -1     0     0   502   512  0.000000000E+00  0.000000000E+00 -2.713475504E+02  2.713475504E+02  0.000000000E+00  0.00000E+00  9.000E+00
      25     1     1     2     0     0  1.417384269E+01 -5.766957309E+01 -1.690275391E+02  2.184551166E+02  1.250026060E+02  0.00000E+00  9.000E+00
       5     1     1     2   501     0 -1.034936982E+01 -1.280069847E+00  1.614043341E+02  1.618105979E+02  4.750000000E+00  0.00000E+00  9.000E+00
      -5     1     1     2     0   503 -1.130994927E+01  4.465062957E+01 -1.373694130E+00  4.632540566E+01  4.750000000E+00  0.00000E+00  9.000E+00
      21     1     1     2   503   512  7.485476404E+00  1.429901337E+01 -5.233749542E+01  5.476958615E+01  6.743495762E-07  0.00000E+00  9.000E+00
#rwgt            1           9   5.4346724911515147E-002          12      881005           0
</event>
<event>
      6   9999  3.45752E-01  8.40409E+00 -1.00000E+00  1.95515E-01
       2    -1     0     0   501     0  0.000000000E+00  0.000000000E+00  5.185328346E+02  5.185328346E+02  0.000000000E+00  0.00000E+00  9.000E+00
      21    -1     0     0   502   503  0.000000000E+00  0.000000000E+00 -1.122949904E+02  1.122949904E+02  0.000000000E+00  0.00000E+00  9.000E+00
      25     1     1     2     0     0 -1.746653167E+00 -4.045153725E+00 -6.954549041E+01  1.431057139E+02  1.249930240E+02  0.00000E+00  9.000E+00
       5     1     1     2   501     0 -2.313365336E+00 -1.900511994E+00  2.291553723E+01  2.359338788E+01  4.750000000E+00  0.00000E+00  9.000E+00
      -5     1     1     2     0   503  5.338047960E-02 -1.441859828E+00 -4.490065187E+00  6.693653309E+00  4.750000000E+00  0.00000E+00  9.000E+00
       2     1     1     2   502     0  4.006638023E+00  7.387525546E+00  4.573578626E+02  4.574350698E+02  5.394796609E-06  0.00000E+00  9.000E+00
#rwgt            1           9   5.1504712754920062E-004          12      883972           0
</event>
<event>
      6   9999  3.45752E-01  8.23463E+00 -1.00000E+00  1.96541E-01
      21    -1     0     0   501   511  0.000000000E+00  0.000000000E+00  5.080194359E+01  5.080194359E+01  0.000000000E+00  0.00000E+00  9.000E+00
      21    -1     0     0   502   503  0.000000000E+00  0.000000000E+00 -7.325695478E+02  7.325695478E+02  0.000000000E+00  0.00000E+00  9.000E+00
      25     1     1     2     0     0 -7.836657130E+00 -5.753735006E+00 -6.247373597E+02  6.371955155E+02  1.250073507E+02  0.00000E+00  9.000E+00
       5     1     1     2   501     0 -1.242699980E-01 -4.450543320E-01 -1.870841138E+00  5.126018236E+00  4.750000000E+00  0.00000E+00  9.000E+00
      -5     1     1     2     0   503  5.197345406E+00 -1.558254720E+00 -9.757565588E+01  9.784176858E+01  4.750000000E+00  0.00000E+00  9.000E+00
      21     1     1     2   502   511  2.763581723E+00  7.757044058E+00  4.241625256E+01  4.320818901E+01  2.697398305E-06  0.00000E+00  9.000E+00
#rwgt            1           9   2.6456295926964644E-003          12      886901           0
</event>
<event>
      6   9999  3.45752E-01  6.04796E+00 -1.00000E+00  2.13577E-01
      21    -1     0     0   501   512  0.000000000E+00  0.000000000E+00  2.999246642E+01  2.999246642E+01  0.000000000E+00  0.00000E+00  9.000E+00
      21    -1     0     0   502   503  0.000000000E+00  0.000000000E+00 -7.369614023E+02  7.369614023E+02  0.000000000E+00  0.00000E+00  9.000E+00
      25     1     1     2     0     0  9.352997541E+00  2.294551619E+00 -6.574810705E+02  6.693313076E+02  1.250211892E+02  0.00000E+00  9.000E+00
       5     1     1     2   501     0  4.629640698E-01 -1.659370193E+00 -1.398780298E+00  5.242798059E+00  4.750000000E+00  0.00000E+00  9.000E+00
      -5     1     1     2     0   503 -6.171030452E+00 -5.461389293E+00 -6.949139983E+01  7.013932948E+01  4.750000000E+00  0.00000E+00  9.000E+00
      21     1     1     2   502   512 -3.644931159E+00  4.826207867E+00  2.140231478E+01  2.224043352E+01  1.651812370E-06  0.00000E+00  9.000E+00
#rwgt            1           9   4.9017189817409032E-003          12      889555           0
</event>
<event>
      6   9999  3.45752E-01  3.51212E+01 -1.00000E+00  1.43543E-01
      21    -1     0     0   501   502  0.000000000E+00  0.000000000E+00  4.845921203E+01  4.845921203E+01  0.000000000E+00  0.00000E+00  9.000E+00
      21    -1     0     0   511   503  0.000000000E+00  0.000000000E+00 -2.565217522E+03  2.565217522E+03  0.000000000E+00  0.00000E+00  9.000E+00
      25     1     1     2     0     0  7.918145926E+00 -3.770047313E+01 -1.797520065E+03  1.802272856E+03  1.250001627E+02  0.00000E+00  9.000E+00
       5     1     1     2   501     0 -2.339853871E+00 -6.075439396E+00  4.475835188E+01  4.547810949E+01  4.750000000E+00  0.00000E+00  9.000E+00
      -5     1     1     2     0   503 -2.526876207E+00  8.787552879E+00 -4.922550488E+01  5.029233559E+01  4.750000000E+00  0.00000E+00  9.000E+00
      21     1     1     2   511   502 -3.051415848E+00  3.498835965E+01 -7.147710920E+02  7.156334330E+02  0.000000000E+00  0.00000E+00  9.000E+00
#rwgt            1           9   4.3755425509923042E-002          12      892918           0
</event>
<event>
      6   9999 -3.45752E-01  5.35197E+00 -1.00000E+00  2.21214E-01
      21    -1     0     0   501   502  0.000000000E+00  0.000000000E+00  1.302557157E+02  1.302557157E+02  0.000000000E+00  0.00000E+00  9.000E+00
      21    -1     0     0   502   512  0.000000000E+00  0.000000000E+00 -7.175422552E+02  7.175422552E+02  0.000000000E+00  0.00000E+00  9.000E+00
      25     1     1     2     0     0 -5.527001885E+00 -2.243328472E+00 -1.149646085E+02  1.699352796E+02  1.250022311E+02  0.00000E+00  9.000E+00
       5     1     1     2   501     0  2.521252024E+00 -4.770099709E+00  1.018049594E+02  1.020584285E+02  4.750000000E+00  0.00000E+00  9.000E+00
      -5     1     1     2     0   503  2.658839914E+00  1.672716087E+00 -8.989149564E+00  1.064118032E+01  4.750000000E+00  0.00000E+00  9.000E+00
      21     1     1     2   503   512  3.469099478E-01  5.340712094E+00 -5.651377409E+02  5.651630824E+02  7.629394531E-06  0.00000E+00  9.000E+00
#rwgt            1           9  -6.2818987329396156E-002          12      894663           0
</event>
<event>
      6   9999  3.45752E-01  1.14542E+01 -1.00000E+00  1.81189E-01
      21    -1     0     0   502   503  0.000000000E+00  0.000000000E+00  1.210003753E+01  1.210003753E+01  0.000000000E+00  0.00000E+00  9.000E+00
       2    -1     0     0   501     0  0.000000000E+00  0.000000000E+00 -9.590635671E+02  9.590635671E+02  0.000000000E+00  0.00000E+00  9.000E+00
      25     1     1     2     0     0 -2.609387754E+00  4.015904116E+01 -4.584972331E+02  4.769332824E+02  1.250043424E+02  0.00000E+00  9.000E+00
       5     1     1     2   501     0 -1.384224832E+01 -1.147465277E+00 -8.609781700E+01  8.734026051E+01  4.750000000E+00  0.00000E+00  9.000E+00
      -5     1     1     2     0   503  5.264175024E+00 -4.146914226E+01 -2.095421511E+02  2.137238332E+02  4.750000000E+00  0.00000E+00  9.000E+00
       2     1     1     2   502     0  1.118746105E+01  2.457566385E+00 -1.928263283E+02  1.931662284E+02  0.000000000E+00  0.00000E+00  9.000E+00
#rwgt            1           9   4.8500173078949493E-004          12      899055           0
</event>
<event>
      6   9999  3.45752E-01  2.69973E+01 -1.00000E+00  1.50863E-01
      21    -1     0     0   502   503  0.000000000E+00  0.000000000E+00  1.266296140E+01  1.266296140E+01  0.000000000E+00  0.00000E+00  9.000E+00
      21    -1     0     0   501   511  0.000000000E+00  0.000000000E+00 -1.182043423E+03  1.182043423E+03  0.000000000E+00  0.00000E+00  9.000E+00
      25     1     1     2     0     0  1.476794596E+01 -2.691214502E+01 -5.379878778E+02  5.531711539E+02  1.250000522E+02  0.00000E+00  9.000E+00
       5     1     1     2   501     0  6.931982337E+00 -5.471844585E+00 -5.991869613E+01  6.075200497E+01  4.750000000E+00  0.00000E+00  9.000E+00
      -5     1     1     2     0   503 -3.934484834E+00  5.271237793E+01 -1.630906124E+02  1.715085576E+02  4.750000000E+00  0.00000E+00  9.000E+00
      21     1     1     2   502   511 -1.776544346E+01 -2.032838833E+01 -4.083832757E+02  4.092746684E+02  5.394796609E-06  0.00000E+00  9.000E+00
#rwgt            1           9   3.8858848874462240E-002          12      901204           0
</event>
<event>
      6   9999  3.45752E-01  3.46532E+01 -1.00000E+00  1.43898E-01
      21    -1     0     0   501   502  0.000000000E+00  0.000000000E+00  2.321299594E+01  2.321299594E+01  0.000000000E+00  0.00000E+00  9.000E+00
      21    -1     0     0   512   503  0.000000000E+00  0.000000000E+00 -1.684503624E+03  1.684503624E+03  0.000000000E+00  0.00000E+00  9.000E+00
      25     1     1     2     0     0  8.376611391E+01  1.761601488E+01 -9.013562226E+02  9.139993538E+02  1.249987717E+02  0.00000E+00  9.000E+00
       5     1     1     2   501     0 -4.875273579E+01 -1.011738735E+01 -3.877088311E+01  6.328455302E+01  4.750000000E+00  0.00000E+00  9.000E+00
      -5     1     1     2     0   503 -1.720775869E+01 -3.722744232E+01 -9.846028973E+01  1.067660085E+02  4.750000000E+00  0.00000E+00  9.000E+00
      21     1     1     2   512   502 -1.780561942E+01  2.972881479E+01 -6.227032322E+02  6.236667042E+02  7.629394531E-06  0.00000E+00  9.000E+00
#rwgt            1           9   6.3740169370646684E-004          12      902125           0
</event>
<event>
      6   9999  3.45752E-01  5.19137E+00 -1.00000E+00  2.23207E-01
      21    -1     0     0   501   502  0.000000000E+00  0.000000000E+00  8.380869378E+01  8.380869378E+01  0.000000000E+00  0.00000E+00  9.000E+00
       3    -1     0     0   502     0  0.000000000E+00  0.000000000E+00 -5.835914235E+02  5.835914235E+02  0.000000000E+00  0.00000E+00  9.000E+00
      25     1     1     2     0     0  1.280450545E+01  9.780576317E+00 -4.875248677E+01  1.351404767E+02  1.250061136E+02  0.00000E+00  9.000E+00
       5     1     1     2   501     0 -8.889638153E-01  4.157088384E-01  3.668415071E+01  3.700341178E+01  4.750000000E+00  0.00000E+00  9.000E+00
      -5     1     1     2     0   503 -6.900942315E+00 -1.153946850E+01 -9.774888911E+00  1.728853063E+01  4.750000000E+00  0.00000E+00  9.000E+00
       3     1     1     2   503     0 -5.014599320E+00  1.343183344E+00 -4.779395047E+02  4.779676982E+02  7.629394531E-06  0.00000E+00  9.000E+00
#rwgt            1           9   6.5360697787607827E-003          12      903900           0
</event>
<event>
      6   9999 -3.45752E-01  8.56205E+01 -1.00000E+00  1.23372E-01
      21    -1     0     0   501   502  0.000000000E+00  0.000000000E+00  3.550310882E+01  3.550310882E+01  0.000000000E+00  0.00000E+00  9.000E+00
       2    -1     0     0   502     0  0.000000000E+00  0.000000000E+00 -3.882290595E+03  3.882290595E+03  0.000000000E+00  0.00000E+00  9.000E+00
      25     1     1     2     0     0  1.162500875E+02  7.351188986E+01 -3.193144962E+02  3.694661450E+02  1.250016161E+02  0.00000E+00  9.000E+00
       5     1     1     2   501     0 -4.055441163E+01 -4.924952199E+00 -8.128705417E+01  9.109919391E+01  4.750000000E+00  0.00000E+00  9.000E+00
      -5     1     1     2     0   503 -1.218021364E+02  3.559210860E+00 -7.635767034E+02  7.732531105E+02  4.750000000E+00  0.00000E+00  9.000E+00
       2     1     1     2   503     0  4.610646054E+01 -7.214614853E+01 -2.682609233E+03  2.683975255E+03  3.051757812E-05  0.00000E+00  9.000E+00
#rwgt            1           9  -2.0539986671441361E-002          12      907937           0
</event>
<event>
      6   9999  3.45752E-01  5.75325E+00 -1.00000E+00  2.16630E-01
      21    -1     0     0   502   503  0.000000000E+00  0.000000000E+00  9.756356675E+00  9.756356675E+00  0.000000000E+00  0.00000E+00  9.000E+00
       1    -1     0     0   501     0  0.000000000E+00  0.000000000E+00 -1.941889696E+03  1.941889696E+03  0.000000000E+00  0.00000E+00  9.000E+00
      25     1     1     2     0     0 -1.123649887E+00  1.077161822E+00 -4.010128169E+02  4.200489656E+02  1.250097247E+02  0.00000E+00  9.000E+00
       5     1     1     2   501     0 -3.419395382E+00 -6.254953203E+00 -2.106694314E+02  2.108435167E+02  4.750000000E+00  0.00000E+00  9.000E+00
      -5     1     1     2     0   503 -1.204269379E+00  5.439163983E+00 -9.258406360E+01  9.287306446E+01  4.750000000E+00  0.00000E+00  9.000E+00
       1     1     1     2   502     0  5.747314648E+00 -2.613726032E-01 -1.227867028E+03  1.227880506E+03  1.525878906E-05  0.00000E+00  9.000E+00
#rwgt            1           9   4.7921573678136068E-003          12      908993           0
</event>
<event>
      6   9999  3.45752E-01  8.78522E+00 -1.00000E+00  1.93320E-01
      21    -1     0     0   511   502  0.000000000E+00  0.000000000E+00  6.039965241E+01  6.039965241E+01  0.000000000E+00  0.00000E+00  9.000E+00
      21    -1     0     0   502   503  0.000000000E+00  0.000000000E+00 -8.122027064E+02  8.122027064E+02  0.000000000E+00  0.00000E+00  9.000E+00
      25     1     1     2     0     0 -4.305865580E+00  4.390821375E+00 -7.270384218E+02  7.377307851E+02  1.249960985E+02  0.00000E+00  9.000E+00
       5     1     1     2   501     0 -1.167592138E-01 -6.295193582E-01 -8.675613695E+00  9.911543791E+00  4.750000000E+00  0.00000E+00  9.000E+00
      -5     1     1     2     0   503 -1.020028393E+00 -1.065750727E+01 -6.967807314E+01  7.065563881E+01  4.750000000E+00  0.00000E+00  9.000E+00
      21     1     1     2   511   501  5.442653187E+00  6.896205258E+00  5.358905465E+01  5.430439116E+01  1.348699152E-06  0.00000E+00  9.000E+00
#rwgt            1           9   6.5616378897710151E-004          12      912409           0
</event>
<event>
      6   9999 -3.45752E-01  1.56964E+01 -1.00000E+00  1.68681E-01
      21    -1     0     0   512   502  0.000000000E+00  0.000000000E+00  9.081690616E+01  9.081690616E+01  0.000000000E+00  0.00000E+00  9.000E+00
      21    -1     0     0   502   503  0.000000000E+00  0.000000000E+00 -1.052636089E+03  1.052636089E+03  0.000000000E+00  0.00000E+00  9.000E+00
      25     1     1     2     0     0  3.970240777E+01  4.753613468E+01 -1.148026230E+01  1.399709641E+02  1.249964363E+02  0.00000E+00  9.000E+00
       5     1     1     2   501     0 -1.513856700E+00  1.020735214E+00  1.968417677E+01  2.033132996E+01  4.750000000E+00  0.00000E+00  9.000E+00
      -5     1     1     2     0   503 -2.393873185E+01 -5.513862596E+01 -9.646905776E+02  9.665732274E+02  4.750000000E+00  0.00000E+00  9.000E+00
      21     1     1     2   512   501 -1.424981922E+01  6.581756062E+00 -5.332519457E+00  1.657747341E+01  2.795705652E-07  0.00000E+00  9.000E+00
#rwgt            1           9  -7.0831930457636999E-003          12      914592           0
</event>
<event>
      6   9999  3.45752E-01  1.10655E+01 -1.00000E+00  1.82678E-01
      21    -1     0     0   501   502  0.000000000E+00  0.000000000E+00  2.371031212E+01  2.371031212E+01  0.000000000E+00  0.00000E+00  9.000E+00
      21    -1     0     0   502   511  0.000000000E+00  0.000000000E+00 -1.133317803E+03  1.133317803E+03  0.000000000E+00  0.00000E+00  9.000E+00
      25     1     1     2     0     0  1.791791722E+01 -7.470390615E+01 -7.771011139E+02  7.908318571E+02  1.250086382E+02  0.00000E+00  9.000E+00
       5     1     1     2   501     0  2.012535295E+00 -1.106632347E+00  1.143078329E+01  1.258968785E+01  4.750000000E+00  0.00000E+00  9.000E+00
      -5     1     1     2     0   503 -1.872739278E+01  6.481061236E+01 -2.487883607E+02  2.578164883E+02  4.750000000E+00  0.00000E+00  9.000E+00
      21     1     1     2   503   511 -1.203059732E+00  1.099992614E+01 -9.514879981E+01  9.579008212E+01  1.348699152E-06  0.00000E+00  9.000E+00
#rwgt            1           9   4.9714589539653422E-005          12      917570           0
</event>
<event>
      6   9999  3.45752E-01  5.04924E+00 -1.00000E+00  2.25056E-01
      21    -1     0     0   501   512  0.000000000E+00  0.000000000E+00  2.798848860E+01  2.798848860E+01  0.000000000E+00  0.00000E+00  9.000E+00
      21    -1     0     0   502   503  0.000000000E+00  0.000000000E+00 -9.525849422E+02  9.525849422E+02  0.000000000E+00  0.00000E+00  9.000E+00
      25     1     1     2     0     0  5.241781722E+00 -1.249281786E+01 -8.699555403E+02  8.789945551E+02  1.250009561E+02  0.00000E+00  9.000E+00
       5     1     1     2   501     0  7.507482637E-01  1.097091432E+00  3.343470577E+00  5.958903260E+00  4.750000000E+00  0.00000E+00  9.000E+00
      -5     1     1     2     0   503 -1.082145079E+01  9.920473854E+00 -7.567028641E+01  7.722741964E+01  4.750000000E+00  0.00000E+00  9.000E+00
      21     1     1     2   502   512  4.828920806E+00  1.475252576E+00  1.768590259E+01  1.839255275E+01  1.238859277E-06  0.00000E+00  9.000E+00
#rwgt            1           9   8.4524374452435935E-002          12      920362           0
</event>
<event>
      6   9999 -3.45752E-01  1.91991E+01 -1.00000E+00  1.61577E-01
      21    -1     0     0   501   502  0.000000000E+00  0.000000000E+00  7.141385101E+01  7.141385101E+01  0.000000000E+00  0.00000E+00  9.000E+00
      21    -1     0     0   511   503  0.000000000E+00  0.000000000E+00 -1.982060775E+02  1.982060775E+02  0.000000000E+00  0.00000E+00  9.000E+00
      25     1     1     2     0     0 -3.829172325E+00  7.665824256E-01 -1.484057597E+02  1.940719594E+02  1.249976228E+02  0.00000E+00  9.000E+00
       5     1     1     2   501     0  8.302379135E-01  2.705695683E+00  3.293057236E+01  3.339154354E+01  4.750000000E+00  0.00000E+00  9.000E+00
      -5     1     1     2     0   503  4.333318700E+00  1.568039612E+01  4.212217270E+00  1.746303948E+01  4.750000000E+00  0.00000E+00  9.000E+00
      21     1     1     2   511   502 -1.334384288E+00 -1.915267423E+01 -1.552925649E+01  2.469338613E+01  4.129530925E-07  0.00000E+00  9.000E+00
#rwgt            1           9  -2.5751583358154116E-002          12      924452           0
</event>
<event>
      6   9999  3.45752E-01  1.09920E+01 -1.00000E+00  1.82968E-01
      21    -1     0     0   501   502  0.000000000E+00  0.000000000E+00  6.882899937E+01  6.882899937E+01  0.000000000E+00  0.00000E+00  9.000E+00
      21    -1     0     0   512   503  0.000000000E+00  0.000000000E+00 -1.511327095E+03  1.511327095E+03  0.000000000E+00  0.00000E+00  9.000E+00
      25     1     1     2     0     0  2.981268732E+01 -1.269873760E+02 -1.401785568E+02  2.286697732E+02  1.250009896E+02  0.00000E+00  9.000E+00
       5     1     1     2   501     0 -2.205450729E+00 -2.487911570E+00  2.053174678E+01  2.133468638E+01  4.750000000E+00  0.00000E+00  9.000E+00
      -5     1     1     2     0   503 -2.510002228E+01  1.187730951E+02 -1.285179592E+03  1.290909061E+03  4.750000000E+00  0.00000E+00  9.000E+00
      21     1     1     2   512   502 -2.507214314E+00  1.070219249E+01 -3.767169452E+01  3.924257402E+01  6.743495762E-07  0.00000E+00  9.000E+00
#rwgt            1           9   6.3075684026884810E-004          12      926327           0
</event>
<event>
      6   9999  3.45752E-01  3.92216E+01 -1.00000E+00  1.40683E-01
      21    -1     0     0   511   502  0.000000000E+00  0.000000000E+00  1.560330612E+02  1.560330612E+02  0.000000000E+00  0.00000E+00  9.000E+00
      21    -1     0     0   502   503  0.000000000E+00  0.000000000E+00 -1.563774993E+03  1.563774993E+03  0.000000000E+00  0.00000E+00  9.000E+00
      25     1     1     2     0     0 -1.569374478E+01  1.529051916E+01 -1.493222399E+03  1.498605279E+03  1.249982265E+02  0.00000E+00  9.000E+00
       5     1     1     2   501     0  5.584458094E+00  1.679436173E+01  2.051106830E+01  2.750460290E+01  4.750000000E+00  0.00000E+00  9.000E+00
      -5     1     1     2     0   503  1.393822513E+00  6.156175488E+00 -6.113080239E+01  6.163910073E+01  4.750000000E+00  0.00000E+00  9.000E+00
      21     1     1     2   511   501  8.715464170E+00 -3.824105638E+01  1.261002010E+02  1.320590716E+02  5.223489356E-06  0.00000E+00  9.000E+00
#rwgt            1           9   7.7754214280524132E-003          12      930591           0
</event>
<event>
      6   9999 -3.45752E-01  3.37025E+01 -1.00000E+00  1.44641E-01
      21    -1     0     0   512   502  0.000000000E+00  0.000000000E+00  7.034629445E+01  7.034629445E+01  0.000000000E+00  0.00000E+00  9.000E+00
      21    -1     0     0   502   503  0.000000000E+00  0.000000000E+00 -8.194195933E+02  8.194195933E+02  0.000000000E+00  0.00000E+00  9.000E+00
      25     1     1     2     0     0  6.636575920E+01 -1.305527410E+00 -4.990715192E+02  5.187538839E+02  1.250083691E+02  0.00000E+00  9.000E+00
       5     1     1     2   501     0 -1.915292104E+01  2.689570653E+01 -1.736118518E+02  1.767875872E+02  4.750000000E+00  0.00000E+00  9.000E+00
      -5     1     1     2     0   503 -2.013858207E+01 -5.519178518E+00 -1.295353463E+02  1.312935347E+02  4.750000000E+00  0.00000E+00  9.000E+00
      21     1     1     2   512   501 -2.707425610E+01 -2.007100060E+01  5.314541840E+01  6.293088197E+01  9.536743164E-07  0.00000E+00  9.000E+00
#rwgt            1           9  -4.8082496750796386E-004          12      931735           0
</event>
<event>
      6   9999  3.45752E-01  2.94038E+01 -1.00000E+00  1.48404E-01
      21    -1     0     0   501   502  0.000000000E+00  0.000000000E+00  1.807875974E+01  1.807875974E+01  0.000000000E+00  0.00000E+00  9.000E+00
      21    -1     0     0   511   503  0.000000000E+00  0.000000000E+00 -1.153150746E+03  1.153150746E+03  0.000000000E+00  0.00000E+00  9.000E+00
      25     1     1     2     0     0 -4.007377789E+01  6.236209527E+01 -4.778461590E+02  4.994580726E+02  1.250059037E+02  0.00000E+00  9.000E+00
       5     1     1     2   501     0 -6.449208669E-01  1.748963195E+00 -1.820924426E+00  5.417846523E+00  4.750000000E+00  0.00000E+00  9.000E+00
      -5     1     1     2     0   503  6.914127710E+01 -5.657833223E+01 -4.450336272E+02  4.539373478E+02  4.750000000E+00  0.00000E+00  9.000E+00
      21     1     1     2   511   502 -2.842257834E+01 -7.532726232E+00 -2.103712753E+02  2.124162385E+02  0.000000000E+00  0.00000E+00  9.000E+00
#rwgt            1           9  0.17748345176524230               12      932743           0
</event>
<event>
      6   9999  3.45752E-01  7.78482E+00 -1.00000E+00  1.99428E-01
      21    -1     0     0   501   512  0.000000000E+00  0.000000000E+00  3.583550979E+01  3.583550979E+01  0.000000000E+00  0.00000E+00  9.000E+00
      21    -1     0     0   502   503  0.000000000E+00  0.000000000E+00 -2.562984095E+02  2.562984095E+02  0.000000000E+00  0.00000E+00  9.000E+00
      25     1     1     2     0     0 -2.881629123E+00 -4.278657326E+00 -2.259415208E+02  2.582769753E+02  1.250232558E+02  0.00000E+00  9.000E+00
       5     1     1     2   501     0 -9.502703251E-01 -1.712026960E-02  2.572648980E-01  4.850978460E+00  4.750000000E+00  0.00000E+00  9.000E+00
      -5     1     1     2     0   503 -3.612871312E+00  2.020077351E+00 -1.005184723E+01  1.186320717E+01  4.750000000E+00  0.00000E+00  9.000E+00
      21     1     1     2   502   512  7.444770760E+00  2.275700245E+00  1.527320335E+01  1.714275835E+01  7.725644944E-07  0.00000E+00  9.000E+00
#rwgt            1           9   1.9460124399544185E-002          12      934303           0
</event>
<event>
      6   9999  3.45752E-01  9.97420E+00 -1.00000E+00  1.87312E-01
      21    -1     0     0   511   502  0.000000000E+00  0.000000000E+00  1.001090897E+01  1.001090897E+01  0.000000000E+00  0.00000E+00  9.000E+00
      21    -1     0     0   502   503  0.000000000E+00  0.000000000E+00 -3.559789516E+03  3.559789516E+03  0.000000000E+00  0.00000E+00  9.000E+00
      25     1     1     2     0     0  2.186945988E+01 -1.147826143E+01 -1.926028445E+03  1.930238191E+03  1.249955120E+02  0.00000E+00  9.000E+00
       5     1     1     2   501     0 -1.725713621E+00  3.669616842E+00  6.194099100E+00  8.796222992E+00  4.750000000E+00  0.00000E+00  9.000E+00
      -5     1     1     2     0   503 -2.359171766E+01 -1.550637928E+00 -1.551852125E+03  1.552039482E+03  4.750000000E+00  0.00000E+00  9.000E+00
      21     1     1     2   511   501  3.447971398E+00  9.359282513E+00 -7.809213644E+01  7.872652952E+01  0.000000000E+00  0.00000E+00  9.000E+00
#rwgt            1           9   9.5515086293088529E-005          12      937147           0
</event>
<event>
      6   9999  3.45752E-01  3.10317E+01 -1.00000E+00  1.46894E-01
      21    -1     0     0   501   502  0.000000000E+00  0.000000000E+00  3.003637038E+02  3.003637038E+02  0.000000000E+00  0.00000E+00  9.000E+00
      21    -1     0     0   502   512  0.000000000E+00  0.000000000E+00 -1.776045503E+02  1.776045503E+02  0.000000000E+00  0.00000E+00  9.000E+00
      25     1     1     2     0     0 -5.966376539E+00 -1.529600359E+01 -4.591745651E+00  1.261595170E+02  1.250022969E+02  0.00000E+00  9.000E+00
       5     1     1     2   501     0 -1.566611877E+01 -3.777240129E-02  2.301637704E+02  2.307452110E+02  4.750000000E+00  0.00000E+00  9.000E+00
      -5     1     1     2     0   503 -4.073626649E+00 -2.049021301E+00  5.383410823E+00  8.505088739E+00  4.750000000E+00  0.00000E+00  9.000E+00
      21     1     1     2   503   512  2.570612196E+01  1.738279729E+01 -1.081962821E+02  1.125584373E+02  2.336015456E-06  0.00000E+00  9.000E+00
#rwgt            1           9   2.2341748064049136E-002          12      940400           0
</event>
<event>
      6   9999  3.45752E-01  9.25777E+00 -1.00000E+00  1.90792E-01
      21    -1     0     0   501   502  0.000000000E+00  0.000000000E+00  8.698052100E+01  8.698052100E+01  0.000000000E+00  0.00000E+00  9.000E+00
      21    -1     0     0   502   511  0.000000000E+00  0.000000000E+00 -1.883585342E+03  1.883585342E+03  0.000000000E+00  0.00000E+00  9.000E+00
      25     1     1     2     0     0  1.274725929E+01  9.281892641E+01 -3.654478561E+01  1.604337182E+02  1.250024434E+02  0.00000E+00  9.000E+00
       5     1     1     2   501     0  2.272907604E+00 -2.064835426E+00  2.346456503E+01  2.413665193E+01  4.750000000E+00  0.00000E+00  9.000E+00
      -5     1     1     2     0   503 -1.082420516E+01 -8.250180301E+01 -1.493999495E+03  1.496322414E+03  4.750000000E+00  0.00000E+00  9.000E+00
      21     1     1     2   503   511 -4.195961734E+00 -8.252287978E+00 -2.895251046E+02  2.896730788E+02  6.607249480E-06  0.00000E+00  9.000E+00
#rwgt            1           9   2.3060240383098903E-003          12      942021           0
</event>
<event>
      6   9999  3.45752E-01  9.72608E+00 -1.00000E+00  1.88473E-01
      21    -1     0     0   501   502  0.000000000E+00  0.000000000E+00  4.072346677E+01  4.072346677E+01  0.000000000E+00  0.00000E+00  9.000E+00
      21    -1     0     0   502   512  0.000000000E+00  0.000000000E+00 -1.626394327E+03  1.626394327E+03  0.000000000E+00  0.00000E+00  9.000E+00
      25     1     1     2     0     0  8.669593650E+00 -1.181970803E+01 -1.112952744E+03  1.120046456E+03  1.250015410E+02  0.00000E+00  9.000E+00
       5     1     1     2   501     0  9.499064007E+00 -1.114633329E+01  3.465076678E+01  3.791716104E+01  4.750000000E+00  0.00000E+00  9.000E+00
      -5     1     1     2     0   503 -1.077569566E+01  1.664617425E+01 -1.242622628E+02  1.259241168E+02  4.750000000E+00  0.00000E+00  9.000E+00
      21     1     1     2   503   512 -7.392961994E+00  6.319867061E+00 -3.831066204E+02  3.832300604E+02  5.394796609E-06  0.00000E+00  9.000E+00
#rwgt            1           9   9.3391940851957054E-005          12      946725           0
</event>
<event>
      6   9999  3.45752E-01  2.08255E+00 -1.00000E+00  3.26235E-01
      21    -1     0     0   511   502  0.000000000E+00  0.000000000E+00  1.086825586E+01  1.086825586E+01  0.000000000E+00  0.00000E+00  9.000E+00
      21    -1     0     0   502   503  0.000000000E+00  0.000000000E+00 -7.213686181E+02  7.213686181E+02  0.000000000E+00  0.00000E+00  9.000E+00
      25     1     1     2     0     0  1.115992020E+00  1.913440538E+00 -6.614311708E+02  6.731431373E+02  1.250023316E+02  0.00000E+00  9.000E+00
       5     1     1     2   501     0  1.589968092E-01  7.378552639E-02 -5.040427731E+00  6.928140876E+00  4.750000000E+00  0.00000E+00  9.000E+00
      -5     1     1     2     0   503 -2.935668429E+00 -7.305728617E-01 -4.765354775E+01  4.798515394E+01  4.750000000E+00  0.00000E+00  9.000E+00
      21     1     1     2   511   501  1.660679600E+00 -1.256653202E+00  3.624784080E+00  4.180441798E+00  2.269677253E-07  0.00000E+00  9.000E+00
#rwgt            1           9   5.8049475068222560E-005          12      950217           0
</event>
<event>
      6   9999  3.45752E-01  4.20406E+00 -1.00000E+00  2.43461E-01
      21    -1     0     0   501   502  0.000000000E+00  0.000000000E+00  8.310145039E+00  8.310145039E+00  0.000000000E+00  0.00000E+00  9.000E+00
      21    -1     0     0   512   503  0.000000000E+00  0.000000000E+00 -8.088833200E+02  8.088833200E+02  0.000000000E+00  0.00000E+00  9.000E+00
      25     1     1     2     0     0  5.326565573E+00 -4.792083017E-01 -7.255794402E+02  7.362874367E+02  1.250002539E+02  0.00000E+00  9.000E+00
       5     1     1     2   501     0 -6.270107512E-01 -9.968429005E-01  3.556447650E-01  4.906711878E+00  4.750000000E+00  0.00000E+00  9.000E+00
      -5     1     1     2     0   503 -1.397242474E+00 -1.125648667E+00 -2.743962019E+01  2.790545874E+01  4.750000000E+00  0.00000E+00  9.000E+00
      21     1     1     2   512   502 -3.302312348E+00  2.601699869E+00 -4.790975935E+01  4.809385772E+01  0.000000000E+00  0.00000E+00  9.000E+00
#rwgt            1           9   8.7203297712470411E-005          12      956856           0
</event>
<event>
      6   9999 -3.45752E-01  6.40315E+00 -1.00000E+00  2.10198E-01
      21    -1     0     0   501   502  0.000000000E+00  0.000000000E+00  1.250172222E+02  1.250172222E+02  0.000000000E+00  0.00000E+00  9.000E+00
      21    -1     0     0   502   511  0.000000000E+00  0.000000000E+00 -1.483367995E+02  1.483367995E+02  0.000000000E+00  0.00000E+00  9.000E+00
      25     1     1     2     0     0  2.949628575E+00  6.111699623E+00  1.767844535E+01  1.264234356E+02  1.249972178E+02  0.00000E+00  9.000E+00
       5     1     1     2   501     0  9.168844863E-01 -9.282520214E-01  4.789452639E+01  4.814717527E+01  4.750000000E+00  0.00000E+00  9.000E+00
      -5     1     1     2     0   503  1.290824244E+00 -1.388431022E+00  3.482036121E+00  6.187167646E+00  4.750000000E+00  0.00000E+00  9.000E+00
      21     1     1     2   503   511 -5.157337306E+00 -3.795016580E+00 -9.237458517E+01  9.259624325E+01  0.000000000E+00  0.00000E+00  9.000E+00
#rwgt            1           9  -7.5066275303195356E-004          12      961349           0
</event>
<event>
      6   9999  3.45752E-01  1.94280E+00 -1.00000E+00  3.37839E-01
      21    -1     0     0   501   502  0.000000000E+00  0.000000000E+00  8.620689868E+01  8.620689868E+01  0.000000000E+00  0.00000E+00  9.000E+00
      21    -1     0     0   502   512  0.000000000E+00  0.000000000E+00 -2.011644374E+03  2.011644374E+03  0.000000000E+00  0.00000E+00  9.000E+00
      25     1     1     2     0     0 -2.348266307E+00 -3.255316380E+01 -1.224058418E+03  1.230857860E+03  1.250073497E+02  0.00000E+00  9.000E+00
       5     1     1     2   501     0 -4.950337365E-01  2.482678516E+00  8.204195146E+01  8.221832552E+01  4.750000000E+00  0.00000E+00  9.000E+00
      -5     1     1     2     0   503  3.522837666E+00  3.189056581E+01 -3.891524279E+02  3.905017198E+02  4.750000000E+00  0.00000E+00  9.000E+00
      21     1     1     2   503   512 -6.795376234E-01 -1.820080529E+00 -3.942685811E+02  3.942733677E+02  5.394796609E-06  0.00000E+00  9.000E+00
#rwgt            1           9   5.6526935451970357E-002          12      965228           0
</event>
<event>
      6   9999  3.45752E-01  8.42044E+00 -1.00000E+00  1.95418E-01
      21    -1     0     0   501   502  0.000000000E+00  0.000000000E+00  4.581723244E+01  4.581723244E+01  0.000000000E+00  0.00000E+00  9.000E+00
       2    -1     0     0   502     0  0.000000000E+00  0.000000000E+00 -1.795028053E+03  1.795028053E+03  0.000000000E+00  0.00000E+00  9.000E+00
      25     1     1     2     0     0 -4.514244923E+01 -5.054236896E+01 -7.465855403E+02  7.600042009E+02  1.249961781E+02  0.00000E+00  9.000E+00
       5     1     1     2   501     0 -6.727540953E+00  9.565581786E+00  3.526907303E+01  3.745971403E+01  4.750000000E+00  0.00000E+00  9.000E+00
      -5     1     1     2     0   503  5.391834181E+01  4.914428733E+01 -4.901529236E+02  4.955752209E+02  4.750000000E+00  0.00000E+00  9.000E+00
       2     1     1     2   503     0 -2.048351635E+00 -8.167500153E+00 -5.477414298E+02  5.478061498E+02  1.078959322E-05  0.00000E+00  9.000E+00
#rwgt            1           9   1.7906021679711529E-004          12      977837           0
</event>
<event>
      6   9999  3.45752E-01  2.94077E+01 -1.00000E+00  1.48400E-01
      -2    -1     0     0     0   502  0.000000000E+00  0.000000000E+00  5.685268863E+02  5.685268863E+02  0.000000000E+00  0.00000E+00  9.000E+00
      21    -1     0     0   502   503  0.000000000E+00  0.000000000E+00 -7.353423362E+02  7.353423362E+02  0.000000000E+00  0.00000E+00  9.000E+00
      25     1     1     2     0     0 -1.209894810E+01  1.346603506E+00 -5.542498489E+02  5.683043186E+02  1.250148217E+02  0.00000E+00  9.000E+00
       5     1     1     2   501     0 -6.067982381E+00  5.720733258E+00 -9.188167604E+01  9.238155709E+01  4.750000000E+00  0.00000E+00  9.000E+00
      -5     1     1     2     0   503 -4.700066964E+00  1.142351270E+01 -8.101109761E+01  8.208500294E+01  4.750000000E+00  0.00000E+00  9.000E+00
      -2     1     1     2     0   501  2.286699745E+01 -1.849084946E+01  5.603271727E+02  5.610983439E+02  0.000000000E+00  0.00000E+00  9.000E+00
#rwgt            1           9   6.0777351861960939E-005          12      982166           0
</event>
<event>
      6   9999  3.45752E-01  5.45086E+01 -1.00000E+00  1.32811E-01
      21    -1     0     0   502   511  0.000000000E+00  0.000000000E+00  7.104489010E+02  7.104489010E+02  0.000000000E+00  0.00000E+00  9.000E+00
      21    -1     0     0   501   502  0.000000000E+00  0.000000000E+00 -2.773210753E+02  2.773210753E+02  0.000000000E+00  0.00000E+00  9.000E+00
      25     1     1     2     0     0 -2.985978112E+02  1.366225182E+02  3.833242396E+01  3.534408700E+02  1.249988342E+02  0.00000E+00  9.000E+00
       5     1     1     2   501     0  2.704935002E+02 -1.892548941E+02  3.269089922E+02  4.646247952E+02  4.750000000E+00  0.00000E+00  9.000E+00
      -5     1     1     2     0   503  8.184807293E+01  4.353294874E+01  1.551634102E+01  9.411452601E+01  4.750000000E+00  0.00000E+00  9.000E+00
      21     1     1     2   503   511 -5.374376198E+01  9.099427192E+00  5.237006853E+01  7.558978506E+01  1.168007728E-06  0.00000E+00  9.000E+00
#rwgt            1           9   1.4108466274382636E-002          12      982941           0
</event>
<event>
      6   9999 -3.45752E-01  2.09519E+01 -1.00000E+00  1.58684E-01
      21    -1     0     0   501   512  0.000000000E+00  0.000000000E+00  2.624652780E+01  2.624652780E+01  0.000000000E+00  0.00000E+00  9.000E+00
      21    -1     0     0   502   503  0.000000000E+00  0.000000000E+00 -1.090885381E+03  1.090885381E+03  0.000000000E+00  0.00000E+00  9.000E+00
      25     1     1     2     0     0  1.051795363E+01 -1.745912122E+01 -5.936795305E+02  6.070395161E+02  1.250045634E+02  0.00000E+00  9.000E+00
       5     1     1     2   501     0  2.759668108E+00 -2.310886774E+00  9.184315106E+00  1.094852089E+01  4.750000000E+00  0.00000E+00  9.000E+00
      -5     1     1     2     0   503 -9.238011275E+00 -7.887985882E-01 -4.779655245E+02  4.780790396E+02  4.750000000E+00  0.00000E+00  9.000E+00
      21     1     1     2   502   512 -4.039610468E+00  2.055880658E+01 -2.178113417E+00  2.106483228E+01  8.402986634E-07  0.00000E+00  9.000E+00
#rwgt            1           9  -1.4769121244226881E-004          12      984428           0
</event>
<event>
      6   9999  3.45752E-01  1.87972E+02 -1.00000E+00  1.09834E-01
      21    -1     0     0   502   511  0.000000000E+00  0.000000000E+00  4.956156998E+02  4.956156998E+02  0.000000000E+00  0.00000E+00  9.000E+00
      21    -1     0     0   501   502  0.000000000E+00  0.000000000E+00 -1.573387550E+03  1.573387550E+03  0.000000000E+00  0.00000E+00  9.000E+00
      25     1     1     2     0     0  1.377540784E+01 -2.397904149E+02 -2.830492610E+02  3.917038179E+02  1.250031674E+02  0.00000E+00  9.000E+00
       5     1     1     2   501     0 -2.881293494E+01 -1.810549032E+01 -8.271418886E+02  8.278552171E+02  4.750000000E+00  0.00000E+00  9.000E+00
      -5     1     1     2     0   503  2.759480096E+01  7.034335031E+01 -3.846193596E+02  3.920003499E+02  4.750000000E+00  0.00000E+00  9.000E+00
      21     1     1     2   503   511 -1.255727386E+01  1.875525550E+02  4.170386593E+02  4.574438647E+02  5.394796609E-06  0.00000E+00  9.000E+00
#rwgt            1           9   3.9137344181426701E-004          12      986738           0
</event>
<event>
      6   9999  3.45752E-01  2.14889E+01 -1.00000E+00  1.57866E-01
      21    -1     0     0   501   502  0.000000000E+00  0.000000000E+00  3.269881157E+01  3.269881157E+01  0.000000000E+00  0.00000E+00  9.000E+00
      21    -1     0     0   512   503  0.000000000E+00  0.000000000E+00 -1.272463894E+03  1.272463894E+03  0.000000000E+00  0.00000E+00  9.000E+00
      25     1     1     2     0     0  3.125548648E+01 -3.399645072E+01 -7.614690465E+02  7.730410195E+02  1.249985801E+02  0.00000E+00  9.000E+00
       5     1     1     2   501     0 -3.630490792E+01 -6.602953028E+01 -1.081716950E+02  1.319152126E+02  4.750000000E+00  0.00000E+00  9.000E+00
      -5     1     1     2     0   503  3.391745837E+00  1.214508652E+02 -2.479718805E+02  2.761782624E+02  4.750000000E+00  0.00000E+00  9.000E+00
      21     1     1     2   512   502  1.657675604E+00 -2.142488418E+01 -1.221524603E+02  1.240282110E+02  1.348699152E-06  0.00000E+00  9.000E+00
#rwgt            1           9   2.8129490018442637E-004          12      987285           0
</event>
<event>
      6   9999  3.45752E-01  1.03032E+01 -1.00000E+00  1.85838E-01
      21    -1     0     0   501   502  0.000000000E+00  0.000000000E+00  2.705935280E+01  2.705935280E+01  0.000000000E+00  0.00000E+00  9.000E+00
      21    -1     0     0   502   511  0.000000000E+00  0.000000000E+00 -1.173845674E+03  1.173845674E+03  0.000000000E+00  0.00000E+00  9.000E+00
      25     1     1     2     0     0 -5.655487034E+01  4.789775156E+01 -7.411723591E+02  7.552839515E+02  1.249989342E+02  0.00000E+00  9.000E+00
       5     1     1     2   501     0  8.488486449E-01  7.485966648E+00  1.466728941E+01  1.715960721E+01  4.750000000E+00  0.00000E+00  9.000E+00
      -5     1     1     2     0   503  5.151915278E+01 -4.596962226E+01 -3.066069363E+02  3.143211815E+02  4.750000000E+00  0.00000E+00  9.000E+00
      21     1     1     2   503   511  4.186868923E+00 -9.414095954E+00 -1.136743154E+02  1.141402868E+02  1.348699152E-06  0.00000E+00  9.000E+00
#rwgt            1           9   8.5901435772076692E-004          12      989962           0
</event>
<event>
      6   9999  3.45752E-01  2.99273E+01 -1.00000E+00  1.47906E-01
      21    -1     0     0   502   512  0.000000000E+00  0.000000000E+00  4.717012730E+01  4.717012730E+01  0.000000000E+00  0.00000E+00  9.000E+00
      21    -1     0     0   501   502  0.000000000E+00  0.000000000E+00 -2.689108031E+02  2.689108031E+02  0.000000000E+00  0.00000E+00  9.000E+00
      25     1     1     2     0     0 -2.378792339E+00 -1.162131613E+01 -2.277561309E+02  2.600683832E+02  1.249879800E+02  0.00000E+00  9.000E+00
       5     1     1     2   501     0 -1.056840043E+00 -1.143311970E+00  1.544633317E+00  5.231870146E+00  4.750000000E+00  0.00000E+00  9.000E+00
      -5     1     1     2     0   503 -1.381408778E+01 -1.169121659E+01 -5.042221576E+00  1.937782405E+01  4.750000000E+00  0.00000E+00  9.000E+00
      21     1     1     2   503   512  1.724972017E+01  2.445584469E+01  9.513043319E+00  3.140285303E+01  6.419616708E-07  0.00000E+00  9.000E+00
#rwgt            1           9   3.3967992163925901E-004          12      993609           0
</event>
<event>
      6   9999 -3.45752E-01  5.11394E+00 -1.00000E+00  2.24204E-01
      21    -1     0     0   502   511  0.000000000E+00  0.000000000E+00  1.815408627E+01  1.815408627E+01  0.000000000E+00  0.00000E+00  9.000E+00
      21    -1     0     0   501   502  0.000000000E+00  0.000000000E+00 -9.462497517E+02  9.462497517E+02  0.000000000E+00  0.00000E+00  9.000E+00
      25     1     1     2     0     0  3.679591700E+01  2.263627920E+01 -8.659014422E+02  8.759431602E+02  1.249990864E+02  0.00000E+00  9.000E+00
       5     1     1     2   501     0 -5.438721567E-01  1.684730382E+00  2.219153398E+00  5.533647548E+00  4.750000000E+00  0.00000E+00  9.000E+00
      -5     1     1     2     0   503 -4.090810870E+01 -2.220596071E+01 -5.495556153E+01  7.217516395E+01  4.750000000E+00  0.00000E+00  9.000E+00
      21     1     1     2   503   511  4.656063857E+00 -2.115048870E+00 -9.457815084E+00  1.075186628E+01  2.064765462E-07  0.00000E+00  9.000E+00
#rwgt            1           9  -7.5045764226861058E-005          12      994467           0
</event>
<event>
      6   9999  3.45752E-01  3.12582E+01 -1.00000E+00  1.46693E-01
      21    -1     0     0   501   502  0.000000000E+00  0.000000000E+00  1.046664174E+02  1.046664174E+02  0.000000000E+00  0.00000E+00  9.000E+00
      21    -1     0     0   502   512  0.000000000E+00  0.000000000E+00 -3.911893251E+02  3.911893251E+02  0.000000000E+00  0.00000E+00  9.000E+00
      25     1     1     2     0     0  6.550465865E+01 -5.861584212E+00 -2.581015528E+01  1.435931686E+02  1.250104615E+02  0.00000E+00  9.000E+00
       5     1     1     2   501     0  6.064105351E+00  1.798541485E+00  4.115841966E+01  4.191164676E+01  4.750000000E+00  0.00000E+00  9.000E+00
      -5     1     1     2     0   503 -4.033038504E+01  2.951236139E+00 -1.635885867E+02  1.685794707E+02  4.750000000E+00  0.00000E+00  9.000E+00
      21     1     1     2   503   512 -3.123837896E+01  1.111806587E+00 -1.382825854E+02  1.417714565E+02  2.697398305E-06  0.00000E+00  9.000E+00
#rwgt            1           9   1.2187618295800182E-003          12      998851           0
</event>
<event>
      6   9999  3.45752E-01  1.58426E+01 -1.00000E+00  1.68340E-01
      21    -1     0     0   501   502  0.000000000E+00  0.000000000E+00  2.407881437E+03  2.407881437E+03  0.000000000E+00  0.00000E+00  9.000E+00
      21    -1     0     0   511   503  0.000000000E+00  0.000000000E+00 -1.966235099E+01  1.966235099E+01  0.000000000E+00  0.00000E+00  9.000E+00
      25     1     1     2     0     0 -3.124909907E+01  1.000335318E+01  3.400115569E+02  3.637409825E+02  1.249922810E+02  0.00000E+00  9.000E+00
       5     1     1     2   501     0 -1.422102141E-01 -1.590560453E+00  1.916182710E+03  1.916189263E+03  4.750000000E+00  0.00000E+00  9.000E+00
      -5     1     1     2     0   503  1.710984074E+01 -1.555075052E+00  1.304843370E+02  1.316962019E+02  4.750000000E+00  0.00000E+00  9.000E+00
      21     1     1     2   511   502  1.428146854E+01 -6.857717679E+00  1.540481599E+00  1.591734020E+01  1.154238983E-06  0.00000E+00  9.000E+00
#rwgt            1           9   3.3018106367912022E-004          12     1000086           0
</event>
<event>
      6   9999  3.45752E-01  5.93427E+00 -1.00000E+00  2.14726E-01
      21    -1     0     0   501   502  0.000000000E+00  0.000000000E+00  1.482180550E+01  1.482180550E+01  0.000000000E+00  0.00000E+00  9.000E+00
      21    -1     0     0   502   512  0.000000000E+00  0.000000000E+00 -1.121733612E+03  1.121733612E+03  0.000000000E+00  0.00000E+00  9.000E+00
      25     1     1     2     0     0  1.081080797E+01 -1.414985248E+00 -6.287428133E+02  6.411403471E+02  1.249981743E+02  0.00000E+00  9.000E+00
       5     1     1     2   501     0  6.114087110E-01  3.687539811E+00  7.459780031E+00  9.601176416E+00  4.750000000E+00  0.00000E+00  9.000E+00
      -5     1     1     2     0   503 -5.705091027E+00 -6.819456982E-01 -2.567864089E+02  2.568945998E+02  4.750000000E+00  0.00000E+00  9.000E+00
      21     1     1     2   503   512 -5.717125657E+00 -1.590608864E+00 -2.288423648E+02  2.289192947E+02  0.000000000E+00  0.00000E+00  9.000E+00
#rwgt            1           9   1.9807733442355111E-003          12     1002239           0
</event>
<event>
      6   9999  3.45752E-01  2.33009E+01 -1.00000E+00  1.55306E-01
      21    -1     0     0   501   502  0.000000000E+00  0.000000000E+00  2.355213928E+01  2.355213928E+01  0.000000000E+00  0.00000E+00  9.000E+00
      21    -1     0     0   511   503  0.000000000E+00  0.000000000E+00 -6.788328413E+02  6.788328413E+02  0.000000000E+00  0.00000E+00  9.000E+00
      25     1     1     2     0     0  4.177904292E+01  3.229859003E+01 -2.858999350E+02  3.164587099E+02  1.249746168E+02  0.00000E+00  9.000E+00
       5     1     1     2   501     0  1.271046288E+00 -4.298406243E-02  1.505940146E+00  5.142738766E+00  4.750000000E+00  0.00000E+00  9.000E+00
      -5     1     1     2     0   503 -1.994091216E+01 -3.523874907E+01 -8.851326365E+01  9.745034508E+01  4.750000000E+00  0.00000E+00  9.000E+00
      21     1     1     2   511   502 -2.310917704E+01  2.983143107E+00 -2.823734435E+02  2.833331869E+02  5.394796609E-06  0.00000E+00  9.000E+00
#rwgt            1           9   8.1969886269940406E-003          12     1006173           0
</event>
<event>
      6   9999  3.45752E-01  1.12307E+01 -1.00000E+00  1.82036E-01
      21    -1     0     0   501   512  0.000000000E+00  0.000000000E+00  4.690284313E+01  4.690284313E+01  0.000000000E+00  0.00000E+00  9.000E+00
      21    -1     0     0   502   503  0.000000000E+00  0.000000000E+00 -7.563741123E+02  7.563741123E+02  0.000000000E+00  0.00000E+00  9.000E+00
      25     1     1     2     0     0 -1.633184377E+01  2.821881580E+01 -5.734920379E+02  5.878618905E+02  1.250018161E+02  0.00000E+00  9.000E+00
       5     1     1     2   501     0  4.720737168E-01 -1.306173192E+00 -2.615592781E+01  2.661999252E+01  4.750000000E+00  0.00000E+00  9.000E+00
      -5     1     1     2     0   503  1.327745114E+01 -1.598287236E+01 -1.477299981E+02  1.492596990E+02  4.750000000E+00  0.00000E+00  9.000E+00
      21     1     1     2   502   512  2.582318909E+00 -1.092977025E+01  3.790669467E+01  3.953537339E+01  1.846782373E-06  0.00000E+00  9.000E+00
#rwgt            1           9  0.63311717470536821               12     1007481           0
</event>
<event>
      6   9999  3.45752E-01  2.72304E+01 -1.00000E+00  1.50612E-01
      21    -1     0     0   502   511  0.000000000E+00  0.000000000E+00  2.105118092E+01  2.105118092E+01  0.000000000E+00  0.00000E+00  9.000E+00
      21    -1     0     0   501   502  0.000000000E+00  0.000000000E+00 -9.891304224E+02  9.891304224E+02  0.000000000E+00  0.00000E+00  9.000E+00
      25     1     1     2     0     0  4.160928443E+01  7.881575353E+01 -7.938103642E+02  8.085200642E+02  1.250061775E+02  0.00000E+00  9.000E+00
       5     1     1     2   501     0 -7.919881599E+00  8.615590119E-02 -1.120683535E+01  1.452196977E+01  4.750000000E+00  0.00000E+00  9.000E+00
      -5     1     1     2     0   503 -3.683228354E+01 -5.185352936E+01 -1.251057168E+02  1.404258114E+02  4.750000000E+00  0.00000E+00  9.000E+00
      21     1     1     2   503   511  3.142880710E+00 -2.704838008E+01 -3.795632508E+01  4.671375791E+01  4.768371582E-07  0.00000E+00  9.000E+00
#rwgt            1           9   3.3849086660179970E-004          12     1009539           0
</event>
<event>
      6   9999  3.45752E-01  3.03895E+01 -1.00000E+00  1.47477E-01
      21    -1     0     0   512   502  0.000000000E+00  0.000000000E+00  2.965918468E+02  2.965918468E+02  0.000000000E+00  0.00000E+00  9.000E+00
      21    -1     0     0   502   503  0.000000000E+00  0.000000000E+00 -1.244882476E+03  1.244882476E+03  0.000000000E+00  0.00000E+00  9.000E+00
      25     1     1     2     0     0  6.171438903E+01 -1.553908078E+01 -1.010903462E+03  1.020589074E+03  1.250044811E+02  0.00000E+00  9.000E+00
       5     1     1     2   501     0 -1.492627691E+01  1.120411312E+01  3.533179446E+01  4.023958366E+01  4.750000000E+00  0.00000E+00  9.000E+00
      -5     1     1     2     0   503 -7.672428006E+01  9.564195515E+00 -2.191035036E+02  2.323940550E+02  4.750000000E+00  0.00000E+00  9.000E+00
      21     1     1     2   512   501  2.993616793E+01 -5.229227857E+00  2.463845423E+02  2.482516096E+02  6.031565972E-06  0.00000E+00  9.000E+00
#rwgt            1           9   1.9051231942146120E-004          12     1011768           0
</event>
<event>
      6   9999  3.45752E-01  1.12922E+01 -1.00000E+00  1.81801E-01
      21    -1     0     0   501   502  0.000000000E+00  0.000000000E+00  3.797342877E+01  3.797342877E+01  0.000000000E+00  0.00000E+00  9.000E+00
      21    -1     0     0   511   503  0.000000000E+00  0.000000000E+00 -6.411971022E+02  6.411971022E+02  0.000000000E+00  0.00000E+00  9.000E+00
      25     1     1     2     0     0  1.068408416E+01 -7.229854264E+01 -1.581595120E+02  2.144309116E+02  1.249998227E+02  0.00000E+00  9.000E+00
       5     1     1     2   501     0 -9.663088101E-02 -6.247896889E-01  5.531377576E+00  7.318356207E+00  4.750000000E+00  0.00000E+00  9.000E+00
      -5     1     1     2     0   503 -1.657769763E+01  6.335098460E+01 -3.424000103E+02  3.486380600E+02  4.750000000E+00  0.00000E+00  9.000E+00
      21     1     1     2   511   502  5.990244355E+00  9.572347722E+00 -1.081955286E+02  1.087832032E+02  0.000000000E+00  0.00000E+00  9.000E+00
#rwgt            1           9   4.0136333748323628E-002          12     1013571           0
</event>
<event>
      6   9999  3.45752E-01  4.90536E+00 -1.00000E+00  2.30831E-01
      21    -1     0     0   501   502  0.000000000E+00  0.000000000E+00  5.760137216E+01  5.760137216E+01  0.000000000E+00  0.00000E+00  9.000E+00
      21    -1     0     0   502   512  0.000000000E+00  0.000000000E+00 -5.619042740E+02  5.619042740E+02  0.000000000E+00  0.00000E+00  9.000E+00
      25     1     1     2     0     0  3.479268459E+00 -2.093476301E+00 -7.502010342E+01  1.458382796E+02  1.249971997E+02  0.00000E+00  9.000E+00
       5     1     1     2   501     0  1.593214394E+00  1.931811303E+00  2.116687657E+01  2.183733937E+01  4.750000000E+00  0.00000E+00  9.000E+00
      -5     1     1     2     0   503 -2.787960879E+00  4.502578807E+00 -1.803254413E+01  1.938507389E+01  4.750000000E+00  0.00000E+00  9.000E+00
      21     1     1     2   503   512 -2.284521973E+00 -4.340913808E+00 -4.324171308E+02  4.324449533E+02  0.000000000E+00  0.00000E+00  9.000E+00
#rwgt            1           9   5.9335041569897259E-003          12     1016125           0
</event>
<event>
      6   9999  3.45752E-01  5.18277E+00 -1.00000E+00  2.23317E-01
      21    -1     0     0   501   502  0.000000000E+00  0.000000000E+00  3.956894219E+02  3.956894219E+02  0.000000000E+00  0.00000E+00  9.000E+00
      21    -1     0     0   511   503  0.000000000E+00  0.000000000E+00 -1.797009951E+01  1.797009951E+01  0.000000000E+00  0.00000E+00  9.000E+00
      25     1     1     2     0     0 -1.983680876E+00 -9.883165535E+00  2.190165030E+02  2.523807021E+02  1.250047129E+02  0.00000E+00  9.000E+00
       5     1     1     2   501     0 -1.240498117E+00 -4.284963515E-01  7.723198956E+01  7.738905062E+01  4.750000000E+00  0.00000E+00  9.000E+00
      -5     1     1     2     0   503 -1.958566245E+00  1.032661951E+01  7.338231374E+01  7.428325196E+01  4.750000000E+00  0.00000E+00  9.000E+00
      21     1     1     2   511   502  5.182745238E+00 -1.495762133E-02  8.088516128E+00  9.606516803E+00  1.192092896E-07  0.00000E+00  9.000E+00
#rwgt            1           9   6.0351216963764470E-004          12     1020369           0
</event>
<event>
      6   9999  3.45752E-01  7.60781E+00 -1.00000E+00  2.00635E-01
      21    -1     0     0   501   502  0.000000000E+00  0.000000000E+00  4.524724104E+02  4.524724104E+02  0.000000000E+00  0.00000E+00  9.000E+00
      21    -1     0     0   502   512  0.000000000E+00  0.000000000E+00 -7.845516473E+01  7.845516473E+01  0.000000000E+00  0.00000E+00  9.000E+00
      25     1     1     2     0     0  3.284543491E+01  1.192021296E+01  1.580313815E+02  2.044985755E+02  1.249993431E+02  0.00000E+00  9.000E+00
       5     1     1     2   501     0  4.334370902E-01 -7.826765869E-01  1.477917660E+02  1.478707850E+02  4.750000000E+00  0.00000E+00  9.000E+00
      -5     1     1     2     0   503 -4.088470408E+01 -1.131099832E+01  1.193945772E+02  1.267956043E+02  4.750000000E+00  0.00000E+00  9.000E+00
      21     1     1     2   503   512  7.605832080E+00  1.734619464E-01 -5.120047906E+01  5.176261032E+01  1.348699152E-06  0.00000E+00  9.000E+00
#rwgt            1           9  0.20341650252810373               12     1024054           0
</event>
<event>
      6   9999  3.45752E-01  1.24532E+01 -1.00000E+00  1.77686E-01
      21    -1     0     0   501   511  0.000000000E+00  0.000000000E+00  4.882699956E+00  4.882699956E+00  0.000000000E+00  0.00000E+00  9.000E+00
      21    -1     0     0   502   503  0.000000000E+00  0.000000000E+00 -3.587575448E+03  3.587575448E+03  0.000000000E+00  0.00000E+00  9.000E+00
      25     1     1     2     0     0 -3.287667916E+01  3.852034403E+01 -2.593385653E+03  2.596890320E+03  1.250019891E+02  0.00000E+00  9.000E+00
       5     1     1     2   501     0 -7.591224480E-01  1.299893536E+00 -1.368011170E+01  1.455932506E+01  4.750000000E+00  0.00000E+00  9.000E+00
      -5     1     1     2     0   503  3.381897165E+01 -2.736834951E+01 -9.601343931E+02  9.611312942E+02  4.750000000E+00  0.00000E+00  9.000E+00
      21     1     1     2   502   511 -1.831700454E-01 -1.245188806E+01 -1.549259079E+01  1.987720898E+01  7.725644944E-07  0.00000E+00  9.000E+00
#rwgt            1           9   1.5941278975964207E-004          12     1027536           0
</event>
<event>
      6   9999  3.45752E-01  5.27916E+01 -1.00000E+00  1.33537E-01
      21    -1     0     0   512   502  0.000000000E+00  0.000000000E+00  3.347089165E+02  3.347089165E+02  0.000000000E+00  0.00000E+00  9.000E+00
      21    -1     0     0   502   503  0.000000000E+00  0.000000000E+00 -1.253749324E+03  1.253749324E+03  0.000000000E+00  0.00000E+00  9.000E+00
      25     1     1     2     0     0 -8.021124071E+01  6.871125202E+01 -1.167141257E+03  1.178557861E+03  1.249993552E+02  0.00000E+00  9.000E+00
       5     1     1     2   501     0  2.441905638E+01 -8.096385115E+01 -2.224506319E+01  8.757191812E+01  4.750000000E+00  0.00000E+00  9.000E+00
      -5     1     1     2     0   503  4.006040668E+00  1.998258938E+00 -2.318590857E+01  2.408713883E+01  4.750000000E+00  0.00000E+00  9.000E+00
      21     1     1     2   512   501  5.178614367E+01  1.025434019E+01  2.935318214E+02  2.982413223E+02  5.394796609E-06  0.00000E+00  9.000E+00
#rwgt            1           9   2.3123807460060763E-004          12     1030078           0
</event>
<event>
      6   9999  3.45752E-01  5.20405E+00 -1.00000E+00  2.23046E-01
      21    -1     0     0   511   502  0.000000000E+00  0.000000000E+00  3.594090163E+01  3.594090163E+01  0.000000000E+00  0.00000E+00  9.000E+00
      21    -1     0     0   502   503  0.000000000E+00  0.000000000E+00 -1.052719645E+03  1.052719645E+03  0.000000000E+00  0.00000E+00  9.000E+00
      25     1     1     2     0     0 -2.223410885E+00  9.472671276E-01 -1.023738341E+03  1.031344299E+03  1.250001296E+02  0.00000E+00  9.000E+00
       5     1     1     2   501     0  3.843450766E+00 -2.615928519E+00  1.901706824E+01  2.014513788E+01  4.750000000E+00  0.00000E+00  9.000E+00
      -5     1     1     2     0   503 -8.362082962E-01 -3.476022003E+00 -2.369158132E+01  2.442612328E+01  4.750000000E+00  0.00000E+00  9.000E+00
      21     1     1     2   511   501 -7.838315848E-01  5.144683394E+00  1.163411022E+01  1.274498645E+01  5.057621821E-07  0.00000E+00  9.000E+00
#rwgt            1           9   1.4488404719377354E-002          12     1031022           0
</event>
<event>
      6   9999  3.45752E-01  6.08853E+00 -1.00000E+00  2.13176E-01
      21    -1     0     0   501   512  0.000000000E+00  0.000000000E+00  1.060284876E+02  1.060284876E+02  0.000000000E+00  0.00000E+00  9.000E+00
      21    -1     0     0   502   503  0.000000000E+00  0.000000000E+00 -1.093491964E+03  1.093491964E+03  0.000000000E+00  0.00000E+00  9.000E+00
      25     1     1     2     0     0  8.011757877E+00 -3.262031837E+00 -9.812330564E+02  9.891996906E+02  1.249915514E+02  0.00000E+00  9.000E+00
       5     1     1     2   501     0  3.163862596E-01  5.761106021E-01 -1.324831194E+00  4.974905163E+00  4.750000000E+00  0.00000E+00  9.000E+00
      -5     1     1     2     0   503 -3.451023982E+00 -9.587813005E-01 -1.049489342E+02  1.051174111E+02  4.750000000E+00  0.00000E+00  9.000E+00
      21     1     1     2   502   512 -4.877120155E+00  3.644702535E+00  1.000433454E+02  1.002284447E+02  4.046097457E-06  0.00000E+00  9.000E+00
#rwgt            1           9   1.0753599593899794E-004          12     1036011           0
</event>
<event>
      6   9999 -3.45752E-01  7.30802E+01 -1.00000E+00  1.26522E-01
      21    -1     0     0   502   511  0.000000000E+00  0.000000000E+00  1.631137647E+02  1.631137647E+02  0.000000000E+00  0.00000E+00  9.000E+00
      21    -1     0     0   501   502  0.000000000E+00  0.000000000E+00 -1.157308200E+03  1.157308200E+03  0.000000000E+00  0.00000E+00  9.000E+00
      25     1     1     2     0     0 -1.684788619E+01 -5.059135119E+01 -1.098747058E+03  1.107119707E+03  1.250024495E+02  0.00000E+00  9.000E+00
       5     1     1     2   501     0 -8.626186688E+00 -1.171019099E+01  3.749936525E+01  4.050067362E+01  4.750000000E+00  0.00000E+00  9.000E+00
      -5     1     1     2     0   503  2.083142344E+00 -6.934149978E+00  9.438218764E+01  9.477859337E+01  4.750000000E+00  0.00000E+00  9.000E+00
      21     1     1     2   503   511  2.339093053E+01  6.923569216E+01 -2.732893087E+01  7.802299124E+01  9.536743164E-07  0.00000E+00  9.000E+00
#rwgt            1           9  -5.1025345176970620E-003          12     1039281           0
</event>
<event>
      6   9999 -3.45752E-01  9.64752E+00 -1.00000E+00  1.88850E-01
      21    -1     0     0   512   502  0.000000000E+00  0.000000000E+00  2.539935718E+01  2.539935718E+01  0.000000000E+00  0.00000E+00  9.000E+00
      21    -1     0     0   502   503  0.000000000E+00  0.000000000E+00 -1.004094015E+03  1.004094015E+03  0.000000000E+00  0.00000E+00  9.000E+00
      25     1     1     2     0     0 -2.993271561E+01 -2.853647407E+01 -3.900913918E+02  4.117118272E+02  1.250001476E+02  0.00000E+00  9.000E+00
       5     1     1     2   501     0 -3.210524215E+00  4.014964228E+00  8.784801767E+00  1.123221463E+01  4.750000000E+00  0.00000E+00  9.000E+00
      -5     1     1     2     0   503  2.387034817E+01  2.718387167E+01 -5.956256072E+02  5.967421410E+02  4.750000000E+00  0.00000E+00  9.000E+00
      21     1     1     2   512   501  9.272891660E+00 -2.662361832E+00 -1.762460289E+00  9.807189023E+00  3.880028893E-07  0.00000E+00  9.000E+00
#rwgt            1           9  -8.5165770054299816E-002          12     1040429           0
</event>
<event>
      6   9999  3.45752E-01  5.99191E+00 -1.00000E+00  2.14140E-01
      21    -1     0     0   511   502  0.000000000E+00  0.000000000E+00  1.579493905E+01  1.579493905E+01  0.000000000E+00  0.00000E+00  9.000E+00
      21    -1     0     0   502   503  0.000000000E+00  0.000000000E+00 -1.029242694E+03  1.029242694E+03  0.000000000E+00  0.00000E+00  9.000E+00
      25     1     1     2     0     0 -9.279083593E+00  1.081553194E-01 -8.625485730E+02  8.716085750E+02  1.250014171E+02  0.00000E+00  9.000E+00
       5     1     1     2   501     0  3.516126226E+00 -4.296720739E+00  9.546797768E+00  1.202201316E+01  4.750000000E+00  0.00000E+00  9.000E+00
      -5     1     1     2     0   503  4.601657224E+00 -1.689731766E+00 -1.381930750E+02  1.383615514E+02  4.750000000E+00  0.00000E+00  9.000E+00
      21     1     1     2   511   501  1.161300144E+00  5.878297186E+00 -2.225290470E+01  2.304549334E+01  4.129530925E-07  0.00000E+00  9.000E+00
#rwgt            1           9   4.2070383448714752               12     1043359           0
</event>
<event>
      6   9999  3.45752E-01  5.64657E+00 -1.00000E+00  2.17798E-01
       2    -1     0     0   501     0  0.000000000E+00  0.000000000E+00  5.387403966E+02  5.387403966E+02  0.000000000E+00  0.00000E+00  9.000E+00
      21    -1     0     0   502   503  0.000000000E+00  0.000000000E+00 -8.597746813E+02  8.597746813E+02  0.000000000E+00  0.00000E+00  9.000E+00
      25     1     1     2     0     0  3.195045329E+01 -2.275966477E+01 -6.881461152E+02  7.005076706E+02  1.250083477E+02  0.00000E+00  9.000E+00
       5     1     1     2   501     0 -1.299093891E+00 -2.518964011E+00  3.197589824E+00  6.389045727E+00  4.750000000E+00  0.00000E+00  9.000E+00
      -5     1     1     2     0   503 -3.071921793E+01  1.963246608E+01 -1.617743795E+02  1.658994166E+02  4.750000000E+00  0.00000E+00  9.000E+00
       2     1     1     2   502     0  6.785853047E-02  5.646162698E+00  5.256886201E+02  5.257189449E+02  7.629394531E-06  0.00000E+00  9.000E+00
#rwgt            1           9   5.3729134978010309E-005          12     1048260           0
</event>
<event>
      6   9999  3.45752E-01  8.30275E+01 -1.00000E+00  1.23971E-01
      21    -1     0     0   501   511  0.000000000E+00  0.000000000E+00  5.412484110E+01  5.412484110E+01  0.000000000E+00  0.00000E+00  9.000E+00
      -2    -1     0     0     0   502  0.000000000E+00  0.000000000E+00 -3.559575159E+02  3.559575159E+02  0.000000000E+00  0.00000E+00  9.000E+00
      25     1     1     2     0     0  9.618917808E+00 -5.346004623E+01 -1.241665992E+02  1.843754210E+02  1.250058054E+02  0.00000E+00  9.000E+00
       5     1     1     2   501     0 -5.183867886E+00  2.418740025E+00 -1.924927520E+01  2.063540369E+01  4.750000000E+00  0.00000E+00  9.000E+00
      -5     1     1     2     0   502 -3.650635188E+01 -2.554193932E+01 -7.508131771E+01  8.743495389E+01  4.750000000E+00  0.00000E+00  9.000E+00
      -2     1     1     2     0   511  3.207130196E+01  7.658324553E+01 -8.333548264E+01  1.176365784E+02  1.348699152E-06  0.00000E+00  9.000E+00
#rwgt            1           4   2.0425309232491745E-003          12     1053240           0
</event>
<event>
      6   9999  3.45752E-01  2.48853E+01 -1.00000E+00  1.53288E-01
      21    -1     0     0   501   502  0.000000000E+00  0.000000000E+00  9.112745628E+01  9.112745628E+01  0.000000000E+00  0.00000E+00  9.000E+00
      21    -1     0     0   502   512  0.000000000E+00  0.000000000E+00 -1.688653731E+03  1.688653731E+03  0.000000000E+00  0.00000E+00  9.000E+00
      25     1     1     2     0     0  1.816760360E+02 -1.157803557E+02 -2.824034685E+02  3.765468304E+02  1.249980947E+02  0.00000E+00  9.000E+00
       5     1     1     2   501     0  3.004799140E+00  5.871273805E-01  3.175935308E+01  3.225821670E+01  4.750000000E+00  0.00000E+00  9.000E+00
      -5     1     1     2     0   503 -1.835717047E+02  1.400537588E+02 -1.224879283E+03  1.246461169E+03  4.750000000E+00  0.00000E+00  9.000E+00
      21     1     1     2   503   512 -1.109130426E+00 -2.486053054E+01 -1.220028768E+02  1.245149713E+02  2.697398305E-06  0.00000E+00  9.000E+00
#rwgt            1           9   5.4024327198116369E-003          12     1053281           0
</event>
<event>
      6   9999 -3.45752E-01  1.23929E+01 -1.00000E+00  1.77885E-01
      -1    -1     0     0     0   503  0.000000000E+00  0.000000000E+00  2.864333820E+00  2.864333820E+00  0.000000000E+00  0.00000E+00  9.000E+00
      21    -1     0     0   501   502  0.000000000E+00  0.000000000E+00 -4.848373837E+03  4.848373837E+03  0.000000000E+00  0.00000E+00  9.000E+00
      25     1     1     2     0     0  5.919008712E+01  1.536938518E+01 -2.959780405E+03  2.963049858E+03  1.249989024E+02  0.00000E+00  9.000E+00
       5     1     1     2   501     0 -5.276587686E+01 -9.045905036E+00 -1.649620579E+03  1.650495890E+03  4.750000000E+00  0.00000E+00  9.000E+00
      -5     1     1     2     0   503  5.459637743E+00 -2.808027017E+00 -1.827040549E+02  1.828688788E+02  4.750000000E+00  0.00000E+00  9.000E+00
      -1     1     1     2     0   502 -1.188384800E+01 -3.515453129E+00 -5.340446414E+01  5.482354462E+01  1.784161275E-06  0.00000E+00  9.000E+00
#rwgt            1           9  -1.0264930381444343E-002          12     1056400           0
</event>
<event>
      6   9999  3.45752E-01  3.08188E+00 -1.00000E+00  2.73889E-01
      21    -1     0     0   511   502  0.000000000E+00  0.000000000E+00  1.406449115E+01  1.406449115E+01  0.000000000E+00  0.00000E+00  9.000E+00
      21    -1     0     0   502   503  0.000000000E+00  0.000000000E+00 -8.209278210E+02  8.209278210E+02  0.000000000E+00  0.00000E+00  9.000E+00
      25     1     1     2     0     0  1.854796727E+01  5.258567429E+01 -5.878119516E+02  6.035393390E+02  1.250102516E+02  0.00000E+00  9.000E+00
       5     1     1     2   501     0 -6.770988614E-02 -3.601875967E-01 -3.799438057E+00  6.093648274E+00  4.750000000E+00  0.00000E+00  9.000E+00
      -5     1     1     2     0   503 -1.546912305E+01 -5.156895687E+01 -2.155874655E+02  2.222592380E+02  4.750000000E+00  0.00000E+00  9.000E+00
      21     1     1     2   511   501 -3.011134338E+00 -6.565298282E-01  3.355253740E-01  3.100086885E+00  4.214684851E-08  0.00000E+00  9.000E+00
#rwgt            1           9   7.9414442152940914E-006          12     1059494           0
</event>
<event>
      6   9999  3.45752E-01  1.09647E+01 -1.00000E+00  1.83077E-01
      21    -1     0     0   501   502  0.000000000E+00  0.000000000E+00  1.114145862E+02  1.114145862E+02  0.000000000E+00  0.00000E+00  9.000E+00
      21    -1     0     0   502   512  0.000000000E+00  0.000000000E+00 -1.837872841E+02  1.837872841E+02  0.000000000E+00  0.00000E+00  9.000E+00
      25     1     1     2     0     0 -6.725213943E+00  2.291857326E+01  5.507805184E-01  1.272240500E+02  1.249606579E+02  0.00000E+00  9.000E+00
       5     1     1     2   501     0  1.011595882E+00 -2.673403842E+00  4.351813407E+01  4.386981773E+01  4.750000000E+00  0.00000E+00  9.000E+00
      -5     1     1     2     0   503  4.431051918E+00 -3.113457810E+01 -8.148364450E+01  8.747081225E+01  4.750000000E+00  0.00000E+00  9.000E+00
      21     1     1     2   503   512  1.282566142E+00  1.088940869E+01 -3.495796791E+01  3.663719036E+01  0.000000000E+00  0.00000E+00  9.000E+00
#rwgt            1           9   266.44255162353369               12     1065687           0
</event>
<event>
      6   9999  3.45752E-01  1.50647E+01 -1.00000E+00  1.70209E-01
      21    -1     0     0   511   502  0.000000000E+00  0.000000000E+00  4.129105336E+01  4.129105336E+01  0.000000000E+00  0.00000E+00  9.000E+00
      21    -1     0     0   502   503  0.000000000E+00  0.000000000E+00 -1.224879297E+03  1.224879297E+03  0.000000000E+00  0.00000E+00  9.000E+00
      25     1     1     2     0     0  8.931314622E+01 -9.930658462E+00 -2.339159034E+02  2.800419812E+02  1.250256184E+02  0.00000E+00  9.000E+00
       5     1     1     2   501     0  6.072244684E+00 -1.853944601E+00  1.119618220E+01  1.371955764E+01  4.750000000E+00  0.00000E+00  9.000E+00
      -5     1     1     2     0   503 -8.288181693E+01  3.381804688E+00 -9.504911941E+02  9.541157712E+02  4.750000000E+00  0.00000E+00  9.000E+00
      21     1     1     2   511   501 -1.250357397E+01  8.402798375E+00 -1.037732812E+01  1.829304025E+01  3.769728732E-07  0.00000E+00  9.000E+00
#rwgt            1           9   2.0658116162424944E-003          12     1068309           0
</event>
<event>
      6   9999  3.45752E-01  2.19645E+01 -1.00000E+00  1.57165E-01
      21    -1     0     0   501   502  0.000000000E+00  0.000000000E+00  1.199159995E+02  1.199159995E+02  0.000000000E+00  0.00000E+00  9.000E+00
      21    -1     0     0   512   503  0.000000000E+00  0.000000000E+00 -3.423612993E+02  3.423612993E+02  0.000000000E+00  0.00000E+00  9.000E+00
      25     1     1     2     0     0 -1.833432338E+01  1.569233647E+01 -2.783795457E+02  3.061087226E+02  1.249999271E+02  0.00000E+00  9.000E+00
       5     1     1     2   501     0 -4.703652004E+00  1.144723239E+01  9.530316263E+01  9.622067750E+01  4.750000000E+00  0.00000E+00  9.000E+00
      -5     1     1     2     0   503  3.655983405E+00 -1.680617150E+01 -3.955997961E+00  1.827637916E+01  4.750000000E+00  0.00000E+00  9.000E+00
      21     1     1     2   512   502  1.938199198E+01 -1.033339736E+01 -3.541291888E+01  4.167151950E+01  4.768371582E-07  0.00000E+00  9.000E+00
#rwgt            1           9   1.2883899872270292E-004          12     1071249           0
</event>
<event>
      6   9999  3.45752E-01  4.21061E+00 -1.00000E+00  2.43326E-01
      21    -1     0     0   502   503  0.000000000E+00  0.000000000E+00  2.139145953E+00  2.139145953E+00  0.000000000E+00  0.00000E+00  9.000E+00
      21    -1     0     0   511   502  0.000000000E+00  0.000000000E+00 -2.847467913E+03  2.847467913E+03  0.000000000E+00  0.00000E+00  9.000E+00
      25     1     1     2     0     0 -1.121694653E+01 -5.903256735E+00 -2.090076839E+03  2.093849793E+03  1.250003850E+02  0.00000E+00  9.000E+00
       5     1     1     2   501     0  7.188292847E+00  4.784196518E+00 -1.696019022E+02  1.698879861E+02  4.750000000E+00  0.00000E+00  9.000E+00
      -5     1     1     2     0   503  8.129326926E+00  1.631677913E-01 -2.278868027E+02  2.280812792E+02  4.750000000E+00  0.00000E+00  9.000E+00
      21     1     1     2   511   501 -4.100673248E+00  9.558924260E-01 -3.577632238E+02  3.577880009E+02  6.607249480E-06  0.00000E+00  9.000E+00
#rwgt            1           9   6.1172584397356624E-003          12     1073261           0
</event>
<event>
      6   9999  3.45752E-01  1.26017E+01 -1.00000E+00  1.77201E-01
      21    -1     0     0   501   502  0.000000000E+00  0.000000000E+00  3.664567015E+01  3.664567015E+01  0.000000000E+00  0.00000E+00  9.000E+00
      21    -1     0     0   502   512  0.000000000E+00  0.000000000E+00 -1.270491850E+03  1.270491850E+03  0.000000000E+00  0.00000E+00  9.000E+00
      25     1     1     2     0     0  1.922267238E+01 -5.631417415E+00 -1.078639680E+03  1.086043475E+03  1.250025787E+02  0.00000E+00  9.000E+00
       5     1     1     2   501     0 -2.372972042E+00  6.517634688E-01  3.138296603E+01  3.183565374E+01  4.750000000E+00  0.00000E+00  9.000E+00
      -5     1     1     2     0   503 -1.680238358E+01 -7.621933412E+00 -1.154328375E+02  1.169945146E+02  4.750000000E+00  0.00000E+00  9.000E+00
      21     1     1     2   503   512 -4.731675739E-02  1.260158736E+01 -7.115662767E+01  7.226387690E+01  0.000000000E+00  0.00000E+00  9.000E+00
#rwgt            1           9  0.11662715647844264               12     1077373           0
</event>
<event>
      6   9999  3.45752E-01  1.00472E+01 -1.00000E+00  1.86979E-01
      21    -1     0     0   501   502  0.000000000E+00  0.000000000E+00  8.808603377E+01  8.808603377E+01  0.000000000E+00  0.00000E+00  9.000E+00
      21    -1     0     0   511   503  0.000000000E+00  0.000000000E+00 -3.282221510E+02  3.282221510E+02  0.000000000E+00  0.00000E+00  9.000E+00
      25     1     1     2     0     0  2.993584212E+00  8.733243819E+00 -5.837636203E+01  1.382674649E+02  1.249994444E+02  0.00000E+00  9.000E+00
       5     1     1     2   501     0 -1.656007884E+00  1.165887700E+00  4.482866615E+01  4.512508687E+01  4.750000000E+00  0.00000E+00  9.000E+00
      -5     1     1     2     0   503  3.441536382E-02  5.393162789E-02  1.204893010E+00  4.900853008E+00  4.750000000E+00  0.00000E+00  9.000E+00
      21     1     1     2   511   502 -1.371991691E+00 -9.953063147E+00 -2.277933144E+02  2.280147800E+02  0.000000000E+00  0.00000E+00  9.000E+00
#rwgt            1           9   6.3574052273752187E-004          12     1080301           0
</event>
<event>
      6   9999  3.45752E-01  1.14529E+01 -1.00000E+00  1.81194E-01
      21    -1     0     0   512   502  0.000000000E+00  0.000000000E+00  2.523881440E+01  2.523881440E+01  0.000000000E+00  0.00000E+00  9.000E+00
      21    -1     0     0   502   503  0.000000000E+00  0.000000000E+00 -7.669639426E+02  7.669639426E+02  0.000000000E+00  0.00000E+00  9.000E+00
      25     1     1     2     0     0  5.914078520E+00  2.448950440E+00 -6.568181242E+02  6.686365748E+02  1.249953886E+02  0.00000E+00  9.000E+00
       5     1     1     2   501     0 -2.412066611E+00  1.690036204E+00 -3.641107103E-01  5.600836037E+00  4.750000000E+00  0.00000E+00  9.000E+00
      -5     1     1     2     0   503 -1.418492244E+01 -1.063860358E-02 -9.865951679E+01  9.978714792E+01  4.750000000E+00  0.00000E+00  9.000E+00
      21     1     1     2   512   501  1.068291053E+01 -4.128348040E+00  1.411662346E+01  1.817819829E+01  1.369610464E-06  0.00000E+00  9.000E+00
#rwgt            1           9   5.4889759030078234E-004          12     1082851           0
</event>
<event>
      6   9999 -3.45752E-01  1.86674E+01 -1.00000E+00  1.62530E-01
      21    -1     0     0   502   511  0.000000000E+00  0.000000000E+00  4.563362664E+03  4.563362664E+03  0.000000000E+00  0.00000E+00  9.000E+00
      21    -1     0     0   501   502  0.000000000E+00  0.000000000E+00 -1.183683858E+01  1.183683858E+01  0.000000000E+00  0.00000E+00  9.000E+00
      25     1     1     2     0     0 -1.711104433E+02  1.007337556E+02  1.935042083E+03  1.949216278E+03  1.250206437E+02  0.00000E+00  9.000E+00
       5     1     1     2   501     0  1.580227603E+02 -9.595043452E+01  2.205766988E+03  2.213505872E+03  4.750000000E+00  0.00000E+00  9.000E+00
      -5     1     1     2     0   503  1.032762495E+01  1.367891199E+01  1.413584449E+02  1.424729621E+02  4.750000000E+00  0.00000E+00  9.000E+00
      21     1     1     2   503   511  2.760058035E+00 -1.846223308E+01  2.693583096E+02  2.700043906E+02  0.000000000E+00  0.00000E+00  9.000E+00
#rwgt            1           9  -7.0024437593617428E-002          12     1085103           0
</event>
<event>
      6   9999  3.45752E-01  1.76180E+01 -1.00000E+00  1.64531E-01
      21    -1     0     0   501   512  0.000000000E+00  0.000000000E+00  5.753466880E+01  5.753466880E+01  0.000000000E+00  0.00000E+00  9.000E+00
      21    -1     0     0   502   503  0.000000000E+00  0.000000000E+00 -3.033430856E+02  3.033430856E+02  0.000000000E+00  0.00000E+00  9.000E+00
      25     1     1     2     0     0 -1.454678257E+01  2.892507682E+01 -2.595735208E+02  2.899159724E+02  1.249983575E+02  0.00000E+00  9.000E+00
       5     1     1     2   501     0 -2.218742738E+00  8.252369402E-01  2.916087427E+01  2.963988737E+01  4.750000000E+00  0.00000E+00  9.000E+00
      -5     1     1     2     0   503  2.742496778E+00 -1.908497788E+01 -3.765715760E+00  2.021140233E+01  4.750000000E+00  0.00000E+00  9.000E+00
      21     1     1     2   502   512  1.402302853E+01 -1.066533589E+01 -1.163005452E+01  2.111049234E+01  2.384185791E-07  0.00000E+00  9.000E+00
#rwgt            1           9   1.0533609281315728E-003          12     1087007           0
</event>
<event>
      6   9999  3.45752E-01  3.70749E+00 -1.00000E+00  2.54880E-01
      21    -1     0     0   501   502  0.000000000E+00  0.000000000E+00  1.851557196E+01  1.851557196E+01  0.000000000E+00  0.00000E+00  9.000E+00
      21    -1     0     0   502   511  0.000000000E+00  0.000000000E+00 -1.259337591E+03  1.259337591E+03  0.000000000E+00  0.00000E+00  9.000E+00
      25     1     1     2     0     0 -1.876449579E+01  1.679747128E+01 -6.114780349E+02  6.246315788E+02  1.249998429E+02  0.00000E+00  9.000E+00
       5     1     1     2   501     0 -2.118965304E+00  3.358726351E+00  1.039268938E+01  1.209717113E+01  4.750000000E+00  0.00000E+00  9.000E+00
      -5     1     1     2     0   503  2.407240435E+01 -1.826512522E+01 -3.421383484E+02  3.435029948E+02  4.750000000E+00  0.00000E+00  9.000E+00
      21     1     1     2   503   511 -3.188943260E+00 -1.891072417E+00 -2.975983253E+02  2.976214185E+02  3.814697266E-06  0.00000E+00  9.000E+00
#rwgt            1           9   2.8014193176866589E-004          12     1089260           0
</event>
<event>
      6   9999 -3.45752E-01  1.36661E+01 -1.00000E+00  1.73953E-01
      21    -1     0     0   502   512  0.000000000E+00  0.000000000E+00  1.312091582E+03  1.312091582E+03  0.000000000E+00  0.00000E+00  9.000E+00
      21    -1     0     0   501   502  0.000000000E+00  0.000000000E+00 -1.075017002E+01  1.075017002E+01  0.000000000E+00  0.00000E+00  9.000E+00
      25     1     1     2     0     0  6.486997197E+00 -2.577623672E+01  3.902402686E+02  4.106477964E+02  1.250505894E+02  0.00000E+00  9.000E+00
       5     1     1     2   501     0 -1.674157587E+01  1.153837789E+01  3.030171410E+02  3.037356824E+02  4.750000000E+00  0.00000E+00  9.000E+00
      -5     1     1     2     0   503  5.585920001E+00  1.394005609E+00  1.759562863E+02  1.761145165E+02  4.750000000E+00  0.00000E+00  9.000E+00
      21     1     1     2   503   512  4.668658670E+00  1.284385322E+01  4.321277157E+02  4.323437563E+02  5.394796609E-06  0.00000E+00  9.000E+00
#rwgt            1           9  -1.6897386321627677               12     1095638           0
</event>
<event>
      6   9999  3.45752E-01  1.97639E+01 -1.00000E+00  1.60605E-01
      21    -1     0     0   511   502  0.000000000E+00  0.000000000E+00  9.374404595E+00  9.374404595E+00  0.000000000E+00  0.00000E+00  9.000E+00
      21    -1     0     0   502   503  0.000000000E+00  0.000000000E+00 -8.227167832E+02  8.227167832E+02  0.000000000E+00  0.00000E+00  9.000E+00
      25     1     1     2     0     0 -3.383504990E-01  6.215991358E+00 -6.834756878E+02  6.948399295E+02  1.249990356E+02  0.00000E+00  9.000E+00
       5     1     1     2   501     0 -1.592732388E+00 -2.160022060E+00 -9.948686714E+00  1.134642495E+01  4.750000000E+00  0.00000E+00  9.000E+00
      -5     1     1     2     0   503 -1.603345652E+01  4.183404975E+00 -3.956598776E+01  4.315787868E+01  4.750000000E+00  0.00000E+00  9.000E+00
      21     1     1     2   511   501  1.796453940E+01 -8.239374273E+00 -8.035201640E+01  8.274695465E+01  9.536743164E-07  0.00000E+00  9.000E+00
#rwgt            1           9  0.36371373823648756               12     1097280           0
</event>
<event>
      6   9999 -3.45752E-01  1.86485E+01 -1.00000E+00  1.62565E-01
      21    -1     0     0   501   512  0.000000000E+00  0.000000000E+00  1.474525137E+01  1.474525137E+01  0.000000000E+00  0.00000E+00  9.000E+00
      21    -1     0     0   502   503  0.000000000E+00  0.000000000E+00 -4.340416731E+03  4.340416731E+03  0.000000000E+00  0.00000E+00  9.000E+00
      25     1     1     2     0     0 -1.199004853E+02  3.349000794E+01 -1.496375148E+03  1.506739973E+03  1.250162279E+02  0.00000E+00  9.000E+00
       5     1     1     2   501     0  1.878204473E+00 -1.449228441E+00  6.116120057E+00  8.099218460E+00  4.750000000E+00  0.00000E+00  9.000E+00
      -5     1     1     2     0   503  1.188808514E+02 -1.341208656E+01 -2.761492292E+03  2.764086609E+03  4.750000000E+00  0.00000E+00  9.000E+00
      21     1     1     2   502   512 -8.585705684E-01 -1.862869294E+01 -7.392016052E+01  7.623618219E+01  2.132480600E-06  0.00000E+00  9.000E+00
#rwgt            1           9  -6.5018974840501691E-004          12     1098634           0
</event>
<event>
      6   9999  3.45752E-01  1.02900E+01 -1.00000E+00  1.85896E-01
      21    -1     0     0   511   502  0.000000000E+00  0.000000000E+00  4.968666640E+01  4.968666640E+01  0.000000000E+00  0.00000E+00  9.000E+00
      21    -1     0     0   502   503  0.000000000E+00  0.000000000E+00 -1.354682454E+03  1.354682454E+03  0.000000000E+00  0.00000E+00  9.000E+00
      25     1     1     2     0     0  7.744236772E+01  2.919849292E+01 -1.089461181E+03  1.099727497E+03  1.250001210E+02  0.00000E+00  9.000E+00
       5     1     1     2   501     0  5.247835932E+00 -2.789105304E+00  3.281644989E+01  3.368680415E+01  4.750000000E+00  0.00000E+00  9.000E+00
      -5     1     1     2     0   503 -9.063063740E+01 -3.295404850E+01 -2.352695368E+02  2.543112251E+02  4.750000000E+00  0.00000E+00  9.000E+00
      21     1     1     2   511   501  7.940433754E+00  6.544660883E+00 -1.308151990E+01  1.664359448E+01  2.384185791E-07  0.00000E+00  9.000E+00
#rwgt            1           9   8.9390813678958206E-004          12     1100943           0
</event>
<event>
      6   9999  3.45752E-01  1.53439E+01 -1.00000E+00  1.69523E-01
      21    -1     0     0   501   502  0.000000000E+00  0.000000000E+00  4.570353813E+03  4.570353813E+03  0.000000000E+00  0.00000E+00  9.000E+00
      -4    -1     0     0     0   503  0.000000000E+00  0.000000000E+00 -1.241286783E+01  1.241286783E+01  0.000000000E+00  0.00000E+00  9.000E+00
      25     1     1     2     0     0 -4.140544470E+00  8.425229508E+00  3.825304386E+03  3.827358348E+03  1.250205924E+02  0.00000E+00  9.000E+00
       5     1     1     2   501     0 -6.765399082E-01  1.947991324E-01  4.751818602E+02  4.752061221E+02  4.750000000E+00  0.00000E+00  9.000E+00
      -5     1     1     2     0   503 -8.244825155E+00 -5.688571786E-01  2.635278190E+02  2.637001604E+02  4.750000000E+00  0.00000E+00  9.000E+00
      -4     1     1     2     0   502  1.306190953E+01 -8.051171462E+00 -6.073120951E+00  1.650204959E+01  3.110882843E-06  0.00000E+00  9.000E+00
#rwgt            1           9   1.0231561684890986E-002          12     1105657           0
</event>
<event>
      6   9999  3.45752E-01  9.91686E+00 -1.00000E+00  1.87576E-01
      21    -1     0     0   501   502  0.000000000E+00  0.000000000E+00  2.843620272E+01  2.843620272E+01  0.000000000E+00  0.00000E+00  9.000E+00
      21    -1     0     0   511   503  0.000000000E+00  0.000000000E+00 -5.532802119E+02  5.532802119E+02  0.000000000E+00  0.00000E+00  9.000E+00
      25     1     1     2     0     0 -6.504238584E+00  3.878500276E+01 -2.381116636E+02  2.717879582E+02  1.249997934E+02  0.00000E+00  9.000E+00
       5     1     1     2   501     0 -2.471901963E-01 -1.634824160E+00  7.060343705E+00  8.668604632E+00  4.750000000E+00  0.00000E+00  9.000E+00
      -5     1     1     2     0   503  1.440688797E+01 -4.345399104E+01 -1.448299336E+02  1.519673647E+02  4.750000000E+00  0.00000E+00  9.000E+00
      21     1     1     2   511   502 -7.655459190E+00  6.303812433E+00 -1.489627557E+02  1.492924871E+02  2.697398305E-06  0.00000E+00  9.000E+00
#rwgt            1           9   2.0069957637260439E-004          12     1106814           0
</event>
<event>
      6   9999  3.45752E-01  8.42679E+01 -1.00000E+00  1.23681E-01
      21    -1     0     0   501   512  0.000000000E+00  0.000000000E+00  3.666163432E+02  3.666163432E+02  0.000000000E+00  0.00000E+00  9.000E+00
      21    -1     0     0   502   503  0.000000000E+00  0.000000000E+00 -1.631134634E+03  1.631134634E+03  0.000000000E+00  0.00000E+00  9.000E+00
      25     1     1     2     0     0  2.181883655E+01 -7.203973730E+00 -8.734413023E+02  8.826396922E+02  1.250006347E+02  0.00000E+00  9.000E+00
       5     1     1     2   501     0 -4.730363591E+01  2.733556943E+00  9.545791641E+01  1.066765326E+02  4.750000000E+00  0.00000E+00  9.000E+00
      -5     1     1     2     0   503 -5.548930884E+01  2.779991778E+01 -7.393396680E+02  7.419552588E+02  4.750000000E+00  0.00000E+00  9.000E+00
      21     1     1     2   502   512  8.097410820E+01 -2.332950100E+01  2.528047636E+02  2.664794932E+02  9.344061824E-06  0.00000E+00  9.000E+00
#rwgt            1           9   1.1325316422391579E-003          12     1109703           0
</event>
<event>
      6   9999  3.45752E-01  4.17840E+01 -1.00000E+00  1.39096E-01
      -3    -1     0     0     0   502  0.000000000E+00  0.000000000E+00  2.522525995E+02  2.522525995E+02  0.000000000E+00  0.00000E+00  9.000E+00
      21    -1     0     0   501   511  0.000000000E+00  0.000000000E+00 -2.873022166E+02  2.873022166E+02  0.000000000E+00  0.00000E+00  9.000E+00
      25     1     1     2     0     0 -6.722306718E+01 -1.780201282E+02  6.807621219E+01  2.376326128E+02  1.249991247E+02  0.00000E+00  9.000E+00
       5     1     1     2   501     0  6.960686071E+01  1.670951714E+02 -4.334651942E+01  1.861918221E+02  4.750000000E+00  0.00000E+00  9.000E+00
      -5     1     1     2     0   502 -1.243806786E-01  5.264783487E+01 -1.604305040E+01  5.524266425E+01  4.750000000E+00  0.00000E+00  9.000E+00
      -3     1     1     2     0   511 -2.259412845E+00 -4.172287810E+01 -4.373625955E+01  6.048771695E+01  0.000000000E+00  0.00000E+00  9.000E+00
#rwgt            1           7  0.78755412295998639               12     1111050           0
</event>
<event>
      6   9999  3.45752E-01  4.77318E+00 -1.00000E+00  2.32967E-01
      21    -1     0     0   501   512  0.000000000E+00  0.000000000E+00  1.390767056E+01  1.390767056E+01  0.000000000E+00  0.00000E+00  9.000E+00
      21    -1     0     0   502   503  0.000000000E+00  0.000000000E+00 -8.780766047E+02  8.780766047E+02  0.000000000E+00  0.00000E+00  9.000E+00
      25     1     1     2     0     0 -2.376834229E+00 -2.027780305E+00 -6.271129059E+02  6.394572639E+02  1.250009374E+02  0.00000E+00  9.000E+00
       5     1     1     2   501     0 -1.771474560E+00 -2.675416177E-01  6.230229905E+00  8.036663817E+00  4.750000000E+00  0.00000E+00  9.000E+00
      -5     1     1     2     0   503  2.741872091E+00  6.856587282E+00 -2.328372923E+02  2.330027850E+02  4.750000000E+00  0.00000E+00  9.000E+00
      21     1     1     2   502   512  1.406436697E+00 -4.561265359E+00 -1.044896586E+01  1.148756256E+01  2.665600750E-07  0.00000E+00  9.000E+00
#rwgt            1           9   1.8531260135837585E-002          12     1111143           0
</event>
<event>
      6   9999  3.45752E-01  4.57618E+00 -1.00000E+00  2.36344E-01
      21    -1     0     0   502   503  0.000000000E+00  0.000000000E+00  1.196843132E+01  1.196843132E+01  0.000000000E+00  0.00000E+00  9.000E+00
      21    -1     0     0   511   502  0.000000000E+00  0.000000000E+00 -9.201948364E+02  9.201948364E+02  0.000000000E+00  0.00000E+00  9.000E+00
      25     1     1     2     0     0  2.225222052E+00 -2.994930655E+00 -3.295539936E+02  3.524844722E+02  1.250021888E+02  0.00000E+00  9.000E+00
       5     1     1     2   501     0  2.302843550E+00  6.053487197E+00 -4.952549598E+02  4.953200838E+02  4.750000000E+00  0.00000E+00  9.000E+00
      -5     1     1     2     0   503 -1.049095639E+00 -8.565159130E-02 -1.460041143E+01  1.538968654E+01  4.750000000E+00  0.00000E+00  9.000E+00
      21     1     1     2   511   501 -3.478969964E+00 -2.972904951E+00 -6.881704026E+01  6.896902512E+01  1.348699152E-06  0.00000E+00  9.000E+00
#rwgt            1           9  0.13846494997340134               12     1115384           0
</event>
<event>
      6   9999  3.45752E-01  2.23750E+01 -1.00000E+00  1.56578E-01
      21    -1     0     0   512   502  0.000000000E+00  0.000000000E+00  2.631010876E+01  2.631010876E+01  0.000000000E+00  0.00000E+00  9.000E+00
      21    -1     0     0   502   503  0.000000000E+00  0.000000000E+00 -9.229118414E+02  9.229118414E+02  0.000000000E+00  0.00000E+00  9.000E+00
      25     1     1     2     0     0  1.342648184E+01  7.926636590E+01 -6.938380592E+02  7.095773560E+02  1.250013781E+02  0.00000E+00  9.000E+00
       5     1     1     2   501     0  6.805461070E-01  1.817384977E+00  2.523351388E-01  5.137334346E+00  4.750000000E+00  0.00000E+00  9.000E+00
      -5     1     1     2     0   503 -1.195263235E+01 -5.881271423E+01 -2.034067024E+02  2.121288520E+02  4.750000000E+00  0.00000E+00  9.000E+00
      21     1     1     2   512   501 -2.154395603E+00 -2.227103665E+01  3.906938514E-01  2.237840779E+01  5.546805889E-07  0.00000E+00  9.000E+00
#rwgt            1           9   8.3426252407619948E-003          12     1120330           0
</event>
<event>
      6   9999  3.45752E-01  4.71801E+00 -1.00000E+00  2.33888E-01
      21    -1     0     0   511   502  0.000000000E+00  0.000000000E+00  8.045116411E+00  8.045116411E+00  0.000000000E+00  0.00000E+00  9.000E+00
      21    -1     0     0   502   503  0.000000000E+00  0.000000000E+00 -7.247421442E+02  7.247421442E+02  0.000000000E+00  0.00000E+00  9.000E+00
      25     1     1     2     0     0 -2.947750041E+00 -5.066071081E+00 -5.738044294E+02  5.872910043E+02  1.249993851E+02  0.00000E+00  9.000E+00
       5     1     1     2   501     0 -1.859820993E-01  2.221773835E-02 -8.367367646E+00  9.623431004E+00  4.750000000E+00  0.00000E+00  9.000E+00
      -5     1     1     2     0   503  2.196028202E-01  1.333399741E+00 -1.262543515E+02  1.263509001E+02  4.750000000E+00  0.00000E+00  9.000E+00
      21     1     1     2   511   501  2.914129321E+00  3.710453602E+00 -8.270879290E+00  9.521925218E+00  1.685873940E-07  0.00000E+00  9.000E+00
#rwgt            1           9   8.5663972686174426E-005          12     1122107           0
</event>
<event>
      6   9999  3.45752E-01  2.98371E+01 -1.00000E+00  1.47991E-01
      21    -1     0     0   501   502  0.000000000E+00  0.000000000E+00  6.016924060E+01  6.016924060E+01  0.000000000E+00  0.00000E+00  9.000E+00
      21    -1     0     0   512   503  0.000000000E+00  0.000000000E+00 -1.366820312E+03  1.366820312E+03  0.000000000E+00  0.00000E+00  9.000E+00
      25     1     1     2     0     0 -2.360624889E+02  6.102875072E+01 -8.180310974E+02  8.626991369E+02  1.249996693E+02  0.00000E+00  9.000E+00
       5     1     1     2   501     0 -2.916233822E+00 -2.552562095E-01  6.983225146E+00  8.938540646E+00  4.750000000E+00  0.00000E+00  9.000E+00
      -5     1     1     2     0   503  2.152815004E+02 -4.264361034E+01 -4.164726650E+02  4.707830128E+02  4.750000000E+00  0.00000E+00  9.000E+00
      21     1     1     2   512   502  2.369722234E+01 -1.812988417E+01 -7.913053429E+01  8.456886250E+01  1.348699152E-06  0.00000E+00  9.000E+00
#rwgt            1           9   7.7399553066465705E-004          12     1125998           0
</event>
<event>
      6   9999  3.45752E-01  1.26260E+01 -1.00000E+00  1.77122E-01
      21    -1     0     0   511   502  0.000000000E+00  0.000000000E+00  7.252255569E+01  7.252255569E+01  0.000000000E+00  0.00000E+00  9.000E+00
      21    -1     0     0   502   503  0.000000000E+00  0.000000000E+00 -1.522928625E+03  1.522928625E+03  0.000000000E+00  0.00000E+00  9.000E+00
      25     1     1     2     0     0  1.310658220E+01 -1.475565769E+01 -9.638635874E+02  9.721330117E+02  1.249802602E+02  0.00000E+00  9.000E+00
       5     1     1     2   501     0 -1.557991906E+01  7.846953313E+00  6.556982005E+01  6.801670644E+01  4.750000000E+00  0.00000E+00  9.000E+00
      -5     1     1     2     0   503  4.891418752E-01  1.937786735E+01 -5.251520248E+02  5.255311148E+02  4.750000000E+00  0.00000E+00  9.000E+00
      21     1     1     2   511   501  1.984194992E+00 -1.246916298E+01 -2.696027676E+01  2.977034730E+01  0.000000000E+00  0.00000E+00  9.000E+00
#rwgt            1           9   6.2575289998586508E-003          12     1127910           0
</event>
<event>
      6   9999  3.45752E-01  5.09054E+00 -1.00000E+00  2.24510E-01
      21    -1     0     0   501   512  0.000000000E+00  0.000000000E+00  1.283373367E+02  1.283373367E+02  0.000000000E+00  0.00000E+00  9.000E+00
      21    -1     0     0   502   503  0.000000000E+00  0.000000000E+00 -7.924429054E+02  7.924429054E+02  0.000000000E+00  0.00000E+00  9.000E+00
      25     1     1     2     0     0  7.152829865E+00 -1.183840008E+00 -6.904644769E+02  7.017123496E+02  1.249258314E+02  0.00000E+00  9.000E+00
       5     1     1     2   501     0 -1.763649927E-01  8.727710735E-02  3.100515489E+00  5.675774679E+00  4.750000000E+00  0.00000E+00  9.000E+00
      -5     1     1     2     0   503 -2.882305024E+00  4.121696850E+00 -9.488612592E+01  9.513798117E+01  4.750000000E+00  0.00000E+00  9.000E+00
      21     1     1     2   502   512 -4.094159848E+00 -3.025133949E+00  1.181445185E+02  1.182541367E+02  3.303624740E-06  0.00000E+00  9.000E+00
#rwgt            1           9   5.6650788994398141E-004          12     1131874           0
</event>
<event>
      6   9999  3.45752E-01  4.53218E+00 -1.00000E+00  2.37132E-01
       2    -1     0     0   501     0  0.000000000E+00  0.000000000E+00  3.762823926E+01  3.762823926E+01  0.000000000E+00  0.00000E+00  9.000E+00
      21    -1     0     0   502   503  0.000000000E+00  0.000000000E+00 -2.756288522E+03  2.756288522E+03  0.000000000E+00  0.00000E+00  9.000E+00
      25     1     1     2     0     0  9.596114061E+00 -4.492263005E+01 -1.630938596E+03  1.636366903E+03  1.250032310E+02  0.00000E+00  9.000E+00
       5     1     1     2   501     0  5.316158547E+00  1.498575204E+00  6.775790806E+00  9.948925087E+00  4.750000000E+00  0.00000E+00  9.000E+00
      -5     1     1     2     0   503 -1.475825255E+01  3.889449407E+01 -1.120461882E+03  1.121243943E+03  4.750000000E+00  0.00000E+00  9.000E+00
       2     1     1     2   502     0 -1.540200618E-01  4.529560781E+00  2.596440470E+01  2.635699061E+01  3.090257978E-06  0.00000E+00  9.000E+00
#rwgt            1           9   1.2528147296593840E-002          12     1135733           0
</event>
<event>
      6   9999  3.45752E-01  9.68316E+00 -1.00000E+00  1.88679E-01
      21    -1     0     0   501   502  0.000000000E+00  0.000000000E+00  5.608383977E+01  5.608383977E+01  0.000000000E+00  0.00000E+00  9.000E+00
      21    -1     0     0   502   511  0.000000000E+00  0.000000000E+00 -1.412531057E+03  1.412531057E+03  0.000000000E+00  0.00000E+00  9.000E+00
      25     1     1     2     0     0  1.709654324E+02  7.657654095E+01 -3.127752453E+02  3.854154160E+02  1.249941725E+02  0.00000E+00  9.000E+00
       5     1     1     2   501     0  3.135082356E-01 -6.030050441E-02  1.089834414E+01  1.189278472E+01  4.750000000E+00  0.00000E+00  9.000E+00
      -5     1     1     2     0   503 -1.635764003E+02 -7.064815125E+01 -1.017401015E+03  1.032896794E+03  4.750000000E+00  0.00000E+00  9.000E+00
      21     1     1     2   503   511 -7.702540358E+00 -5.868089198E+00 -3.716930128E+01  3.840990180E+01  6.743495762E-07  0.00000E+00  9.000E+00
#rwgt            1           9   5.7384039255510739E-004          12     1141754           0
</event>
<event>
      6   9999  3.45752E-01  8.69042E+00 -1.00000E+00  1.93852E-01
      21    -1     0     0   501   512  0.000000000E+00  0.000000000E+00  1.462130878E+01  1.462130878E+01  0.000000000E+00  0.00000E+00  9.000E+00
      21    -1     0     0   502   503  0.000000000E+00  0.000000000E+00 -1.072081624E+03  1.072081624E+03  0.000000000E+00  0.00000E+00  9.000E+00
      25     1     1     2     0     0  1.185844950E+01  1.399147732E+01 -1.020463173E+03  1.028254076E+03  1.249998951E+02  0.00000E+00  9.000E+00
       5     1     1     2   501     0 -2.626074183E+00  2.100088252E+00  9.972087442E-01  5.904537370E+00  4.750000000E+00  0.00000E+00  9.000E+00
      -5     1     1     2     0   503 -1.320000593E+01 -8.359732835E+00 -4.035914844E+01  4.353789904E+01  4.750000000E+00  0.00000E+00  9.000E+00
      21     1     1     2   502   512  3.967630613E+00 -7.731832735E+00  2.364797690E+00  9.006419835E+00  7.873681077E-07  0.00000E+00  9.000E+00
#rwgt            1           9   2.0118407562830205E-004          12     1146256           0
</event>
<event>
      6   9999 -3.45752E-01  2.26944E+00 -1.00000E+00  3.13003E-01
      21    -1     0     0   501   511  0.000000000E+00  0.000000000E+00  2.137429758E+02  2.137429758E+02  0.000000000E+00  0.00000E+00  9.000E+00
      21    -1     0     0   502   503  0.000000000E+00  0.000000000E+00 -8.864387205E+02  8.864387205E+02  0.000000000E+00  0.00000E+00  9.000E+00
      25     1     1     2     0     0  1.218895308E+01  8.275748657E+00 -7.592708804E+02  7.696326234E+02  1.250001866E+02  0.00000E+00  9.000E+00
       5     1     1     2   501     0 -2.516080004E+00  8.757648074E-01  7.724875378E+00  9.451657113E+00  4.750000000E+00  0.00000E+00  9.000E+00
      -5     1     1     2     0   503 -1.142088027E+01 -1.059887020E+01 -1.205694385E+02  1.216648041E+02  4.750000000E+00  0.00000E+00  9.000E+00
      21     1     1     2   502   511  1.748007195E+00  1.447356730E+00  1.994196988E+02  1.994326117E+02  4.672030912E-06  0.00000E+00  9.000E+00
#rwgt            1           9  -1.8933560196524062E-004          12     1149155           0
</event>
<event>
      6   9999 -3.45752E-01  1.17845E+01 -1.00000E+00  1.79982E-01
      21    -1     0     0   512   502  0.000000000E+00  0.000000000E+00  1.220056222E+02  1.220056222E+02  0.000000000E+00  0.00000E+00  9.000E+00
      21    -1     0     0   502   503  0.000000000E+00  0.000000000E+00 -1.134040446E+03  1.134040446E+03  0.000000000E+00  0.00000E+00  9.000E+00
      25     1     1     2     0     0  1.270878703E+02  4.191719248E+01 -4.785285064E+02  5.123683995E+02  1.249938702E+02  0.00000E+00  9.000E+00
       5     1     1     2   501     0  1.990128363E+00 -4.544206438E+00  9.944696556E+00  1.208593863E+01  4.750000000E+00  0.00000E+00  9.000E+00
      -5     1     1     2     0   503 -1.205549605E+02 -4.551128050E+01 -6.306004326E+02  6.436491616E+02  4.750000000E+00  0.00000E+00  9.000E+00
      21     1     1     2   512   501 -8.523038167E+00  8.138294457E+00  8.714941910E+01  8.794256800E+01  2.132480600E-06  0.00000E+00  9.000E+00
#rwgt            1           9  -3.6951592929067136E-003          12     1157196           0
</event>
<event>
      6   9999  3.45752E-01  1.00197E+01 -1.00000E+00  1.87104E-01
      21    -1     0     0   501   502  0.000000000E+00  0.000000000E+00  2.225246265E+01  2.225246265E+01  0.000000000E+00  0.00000E+00  9.000E+00
       2    -1     0     0   502     0  0.000000000E+00  0.000000000E+00 -1.467646864E+03  1.467646864E+03  0.000000000E+00  0.00000E+00  9.000E+00
      25     1     1     2     0     0  2.466156445E+01 -5.925525624E+01 -4.716458064E+02  4.921324103E+02  1.250006578E+02  0.00000E+00  9.000E+00
       5     1     1     2   501     0 -2.832944476E+00 -3.670076839E+00  7.802170403E+00  1.024360295E+01  4.750000000E+00  0.00000E+00  9.000E+00
      -5     1     1     2     0   503 -3.053380950E+01  5.796413004E+01 -3.632439486E+02  3.691353175E+02  4.750000000E+00  0.00000E+00  9.000E+00
       2     1     1     2   503     0  8.705189533E+00  4.961203040E+00 -6.183068165E+02  6.183879957E+02  7.629394531E-06  0.00000E+00  9.000E+00
#rwgt            1           9  0.26149666569384283               12     1160350           0
</event>
<event>
      6   9999  3.45752E-01  8.37441E+00 -1.00000E+00  1.95692E-01
      21    -1     0     0   501   511  0.000000000E+00  0.000000000E+00  6.760757499E+01  6.760757499E+01  0.000000000E+00  0.00000E+00  9.000E+00
      21    -1     0     0   502   503  0.000000000E+00  0.000000000E+00 -6.823943794E+02  6.823943794E+02  0.000000000E+00  0.00000E+00  9.000E+00
      25     1     1     2     0     0 -4.270030683E+00  1.419967117E+01 -5.695242775E+02  5.832681449E+02  1.249958494E+02  0.00000E+00  9.000E+00
       5     1     1     2   501     0 -3.425167809E-01 -9.856845007E-02 -4.715939306E-01  4.786641236E+00  4.750000000E+00  0.00000E+00  9.000E+00
      -5     1     1     2     0   503 -6.442985053E-02 -7.154401124E+00 -1.028899388E+02  1.032477197E+02  4.750000000E+00  0.00000E+00  9.000E+00
      21     1     1     2   502   511  4.676977315E+00 -6.946701593E+00  5.809900586E+01  5.869944856E+01  0.000000000E+00  0.00000E+00  9.000E+00
#rwgt            1           9   1.2442096051023747E-003          12     1163565           0
</event>
<event>
      6   9999  3.45752E-01  1.67942E+00 -1.00000E+00  3.65303E-01
      21    -1     0     0   501   512  0.000000000E+00  0.000000000E+00  1.445909926E+01  1.445909926E+01  0.000000000E+00  0.00000E+00  9.000E+00
      21    -1     0     0   502   503  0.000000000E+00  0.000000000E+00 -8.987112691E+02  8.987112691E+02  0.000000000E+00  0.00000E+00  9.000E+00
      25     1     1     2     0     0 -4.111150205E+00 -2.443322018E+00 -8.508805135E+02  8.600275184E+02  1.250072507E+02  0.00000E+00  9.000E+00
       5     1     1     2   501     0  1.886841619E+00 -8.700224681E-01  8.811986943E+00  1.022402681E+01  4.750000000E+00  0.00000E+00  9.000E+00
      -5     1     1     2     0   503  9.280333308E-01  2.245578227E+00 -3.853039554E+01  3.889804299E+01  4.750000000E+00  0.00000E+00  9.000E+00
      21     1     1     2   502   512  1.296275255E+00  1.067766258E+00 -3.653247734E+00  4.020780189E+00  5.960464478E-08  0.00000E+00  9.000E+00
#rwgt            1           9   2.3445530038588482E-003          12     1166387           0
</event>
<event>
      6   9999  3.45752E-01  4.03802E+00 -1.00000E+00  2.47003E-01
      21    -1     0     0   501   502  0.000000000E+00  0.000000000E+00  1.103888076E+01  1.103888076E+01  0.000000000E+00  0.00000E+00  9.000E+00
      21    -1     0     0   502   511  0.000000000E+00  0.000000000E+00 -9.373237090E+02  9.373237090E+02  0.000000000E+00  0.00000E+00  9.000E+00
      25     1     1     2     0     0 -1.804021283E+01 -7.947184891E+00 -7.797764288E+02  7.899776111E+02  1.249989608E+02  0.00000E+00  9.000E+00
       5     1     1     2   501     0 -4.283100988E-01  6.278145357E-01 -3.155100186E+00  5.752804343E+00  4.750000000E+00  0.00000E+00  9.000E+00
      -5     1     1     2     0   503  1.817876557E+01  1.134698354E+01 -2.154393284E+01  3.075589529E+01  4.750000000E+00  0.00000E+00  9.000E+00
      21     1     1     2   503   511  2.897573651E-01 -4.027613184E+00 -1.218093664E+02  1.218762789E+02  0.000000000E+00  0.00000E+00  9.000E+00
#rwgt            1           9   1.6334718263594228E-005          12     1176458           0
</event>
<event>
      6   9999  3.45752E-01  2.20655E+01 -1.00000E+00  1.57019E-01
      21    -1     0     0   512   503  0.000000000E+00  0.000000000E+00  6.419988024E+01  6.419988024E+01  0.000000000E+00  0.00000E+00  9.000E+00
      21    -1     0     0   501   502  0.000000000E+00  0.000000000E+00 -1.415599756E+03  1.415599756E+03  0.000000000E+00  0.00000E+00  9.000E+00
      25     1     1     2     0     0 -4.428812992E+01 -4.288941613E+01 -2.065152885E+02  2.491505501E+02  1.250059670E+02  0.00000E+00  9.000E+00
       5     1     1     2   501     0 -7.449858814E+01  1.152478182E+02 -1.057311039E+03  1.066190083E+03  4.750000000E+00  0.00000E+00  9.000E+00
      -5     1     1     2     0   503  1.002422231E+02 -6.040068796E+01 -7.435721175E+01  1.387382566E+02  4.750000000E+00  0.00000E+00  9.000E+00
      21     1     1     2   512   502  1.854449497E+01 -1.195771407E+01 -1.321633701E+01  2.572074617E+01  5.057621821E-07  0.00000E+00  9.000E+00
#rwgt            1           9   1.9124725300385871E-002          12     1181074           0
</event>
<event>
      6   9999  3.45752E-01  1.12860E+01 -1.00000E+00  1.81824E-01
      21    -1     0     0   501   502  0.000000000E+00  0.000000000E+00  1.638616196E+01  1.638616196E+01  0.000000000E+00  0.00000E+00  9.000E+00
      21    -1     0     0   502   511  0.000000000E+00  0.000000000E+00 -1.048822545E+03  1.048822545E+03  0.000000000E+00  0.00000E+00  9.000E+00
      25     1     1     2     0     0  4.201862248E+00 -6.754168010E+00 -9.008329536E+02  9.094954299E+02  1.249746068E+02  0.00000E+00  9.000E+00
       5     1     1     2   501     0 -3.002570804E+00  1.034275066E+00  9.394655503E+00  1.099578139E+01  4.750000000E+00  0.00000E+00  9.000E+00
      -5     1     1     2     0   503 -8.369774645E+00 -2.995528314E+00 -1.417421923E+01  1.739244975E+01  4.750000000E+00  0.00000E+00  9.000E+00
      21     1     1     2   503   511  7.170483201E+00  8.715421259E+00 -1.268238661E+02  1.273250463E+02  2.336015456E-06  0.00000E+00  9.000E+00
#rwgt            1           9   1.2793637292324035E-004          12     1183442           0
</event>
<event>
      6   9999  3.45752E-01  1.16146E+01 -1.00000E+00  1.80597E-01
      21    -1     0     0   512   502  0.000000000E+00  0.000000000E+00  4.833183185E+01  4.833183185E+01  0.000000000E+00  0.00000E+00  9.000E+00
      21    -1     0     0   502   503  0.000000000E+00  0.000000000E+00 -8.959013632E+02  8.959013632E+02  0.000000000E+00  0.00000E+00  9.000E+00
      25     1     1     2     0     0  3.863899470E+00  1.012556621E+01 -8.369440586E+02  8.462942178E+02  1.249843557E+02  0.00000E+00  9.000E+00
       5     1     1     2   501     0  1.506215270E+00 -1.749025054E+00  1.135898121E+01  1.252664070E+01  4.750000000E+00  0.00000E+00  9.000E+00
      -5     1     1     2     0   503  4.253007614E+00 -1.873085194E+00 -5.241813669E+01  5.283767667E+01  4.750000000E+00  0.00000E+00  9.000E+00
      21     1     1     2   512   501 -9.623122354E+00 -6.503455966E+00  3.043368268E+01  3.257465985E+01  0.000000000E+00  0.00000E+00  9.000E+00
#rwgt            1           9   1.5473938503159531E-003          12     1185996           0
</event>
<event>
      6   9999  3.45752E-01  6.56977E+00 -1.00000E+00  2.08713E-01
      21    -1     0     0   501   502  0.000000000E+00  0.000000000E+00  8.509587538E+01  8.509587538E+01  0.000000000E+00  0.00000E+00  9.000E+00
      21    -1     0     0   502   511  0.000000000E+00  0.000000000E+00 -1.706492628E+03  1.706492628E+03  0.000000000E+00  0.00000E+00  9.000E+00
      25     1     1     2     0     0  5.824528708E+01 -1.768523308E+01 -1.130121213E+02  1.791716887E+02  1.250018940E+02  0.00000E+00  9.000E+00
       5     1     1     2   501     0  1.762075900E+00 -1.030545257E+00  5.124329101E+01  5.150343978E+01  4.750000000E+00  0.00000E+00  9.000E+00
      -5     1     1     2     0   503 -5.373242224E+01  1.676974416E+01 -1.436595141E+03  1.437705310E+03  4.750000000E+00  0.00000E+00  9.000E+00
      21     1     1     2   503   511 -6.274940737E+00  1.946034177E+00 -1.230327812E+02  1.232080646E+02  1.907348633E-06  0.00000E+00  9.000E+00
#rwgt            1           9   7.3996886044906908E-003          12     1188856           0
</event>
<event>
      6   9999  3.45752E-01  8.88150E+00 -1.00000E+00  1.92788E-01
      21    -1     0     0   501   502  0.000000000E+00  0.000000000E+00  7.033888295E+01  7.033888295E+01  0.000000000E+00  0.00000E+00  9.000E+00
      21    -1     0     0   512   503  0.000000000E+00  0.000000000E+00 -5.373279242E+02  5.373279242E+02  0.000000000E+00  0.00000E+00  9.000E+00
      25     1     1     2     0     0 -1.688479033E+01  3.731001454E+01 -3.561482085E+02  3.796622366E+02  1.249989367E+02  0.00000E+00  9.000E+00
       5     1     1     2   501     0 -3.492570961E+00 -2.058504629E+00  5.230606029E+01  5.267752781E+01  4.750000000E+00  0.00000E+00  9.000E+00
      -5     1     1     2     0   503  2.194860773E+01 -2.651010240E+01 -4.502273655E+01  5.686946647E+01  4.750000000E+00  0.00000E+00  9.000E+00
      21     1     1     2   512   502 -1.571246445E+00 -8.741407512E+00 -1.181241565E+02  1.184575763E+02  1.348699152E-06  0.00000E+00  9.000E+00
#rwgt            1           9   4.5962783965942059E-003          12     1194370           0
</event>
<event>
      6   9999  3.45752E-01  1.17629E+01 -1.00000E+00  1.80060E-01
      21    -1     0     0   511   502  0.000000000E+00  0.000000000E+00  1.570329630E+02  1.570329630E+02  0.000000000E+00  0.00000E+00  9.000E+00
      21    -1     0     0   502   503  0.000000000E+00  0.000000000E+00 -1.454080380E+03  1.454080380E+03  0.000000000E+00  0.00000E+00  9.000E+00
      25     1     1     2     0     0  1.424928904E+01 -4.284192581E+01 -1.337817505E+03  1.344403080E+03  1.250019739E+02  0.00000E+00  9.000E+00
       5     1     1     2   501     0  1.380471425E+00  1.471130127E+01  5.429006457E+01  5.646504846E+01  4.750000000E+00  0.00000E+00  9.000E+00
      -5     1     1     2     0   503 -2.020826267E+01  3.896588243E+01 -1.071445701E+02  1.158845774E+02  4.750000000E+00  0.00000E+00  9.000E+00
      21     1     1     2   511   501  4.578502213E+00 -1.083525789E+01  9.362459284E+01  9.436063734E+01  3.015782986E-06  0.00000E+00  9.000E+00
#rwgt            1           9   1.6657652091392767E-003          12     1198030           0
</event>
<event>
      6   9999  3.45752E-01  2.03326E+01 -1.00000E+00  1.59666E-01
      21    -1     0     0   501   502  0.000000000E+00  0.000000000E+00  4.714144246E+01  4.714144246E+01  0.000000000E+00  0.00000E+00  9.000E+00
      21    -1     0     0   502   512  0.000000000E+00  0.000000000E+00 -1.283638679E+03  1.283638679E+03  0.000000000E+00  0.00000E+00  9.000E+00
      25     1     1     2     0     0  1.151479199E+01 -1.259337603E+02 -2.171649465E+02  2.806721579E+02  1.249973753E+02  0.00000E+00  9.000E+00
       5     1     1     2   501     0 -2.750970230E+00 -4.224451452E+00  9.299500969E+00  1.159556146E+01  4.750000000E+00  0.00000E+00  9.000E+00
      -5     1     1     2     0   503 -2.124262013E+01  1.141053209E+02 -9.578510703E+02  9.648691665E+02  4.750000000E+00  0.00000E+00  9.000E+00
      21     1     1     2   503   512  1.247879837E+01  1.605289089E+01 -7.078072026E+01  7.364323509E+01  9.536743164E-07  0.00000E+00  9.000E+00
#rwgt            1           9   2.9167769073866295E-002          12     1201987           0
</event>
<event>
      6   9999  3.45752E-01  2.56421E+01 -1.00000E+00  1.52387E-01
      21    -1     0     0   501   511  0.000000000E+00  0.000000000E+00  1.251070914E+01  1.251070914E+01  0.000000000E+00  0.00000E+00  9.000E+00
      21    -1     0     0   502   503  0.000000000E+00  0.000000000E+00 -2.047850499E+03  2.047850499E+03  0.000000000E+00  0.00000E+00  9.000E+00
      25     1     1     2     0     0  1.529764112E+01 -5.833879726E+01 -1.723668275E+03  1.729246907E+03  1.250004415E+02  0.00000E+00  9.000E+00
       5     1     1     2   501     0 -7.748360586E+00  5.362580812E+00 -1.142129814E+00  1.061420394E+01  4.750000000E+00  0.00000E+00  9.000E+00
      -5     1     1     2     0   503 -3.056431587E+01  4.167011365E+01 -1.736130381E+02  1.812032706E+02  4.750000000E+00  0.00000E+00  9.000E+00
      21     1     1     2   502   511  2.301503534E+01  1.130610280E+01 -1.369163467E+02  1.392968263E+02  3.814697266E-06  0.00000E+00  9.000E+00
#rwgt            1           9   4.5649953694762123E-003          12     1204151           0
</event>
<event>
      6   9999  3.45752E-01  4.68600E+01 -1.00000E+00  1.36312E-01
      21    -1     0     0   501   502  0.000000000E+00  0.000000000E+00  9.994755038E+02  9.994755038E+02  0.000000000E+00  0.00000E+00  9.000E+00
      21    -1     0     0   502   512  0.000000000E+00  0.000000000E+00 -6.145324883E+01  6.145324883E+01  0.000000000E+00  0.00000E+00  9.000E+00
      25     1     1     2     0     0 -3.060484815E+01 -3.113288542E+01  7.818547361E+02  7.929904754E+02  1.250246078E+02  0.00000E+00  9.000E+00
       5     1     1     2   501     0 -2.911635165E+00 -1.961551886E+00  1.291832026E+02  1.293181644E+02  4.750000000E+00  0.00000E+00  9.000E+00
      -5     1     1     2     0   503 -1.817193568E+00  2.314706995E+00  7.284139257E+01  7.305539701E+01  4.750000000E+00  0.00000E+00  9.000E+00
      21     1     1     2   503   512  3.533367688E+01  3.077973031E+01 -4.585707624E+01  6.556471582E+01  6.743495762E-07  0.00000E+00  9.000E+00
#rwgt            1           9   6.3636616811669263E-004          12     1205584           0
</event>
<event>
      6   9999 -3.45752E-01  1.96334E+01 -1.00000E+00  1.60826E-01
      -3    -1     0     0     0   502  0.000000000E+00  0.000000000E+00  3.090277848E+01  3.090277848E+01  0.000000000E+00  0.00000E+00  9.000E+00
      21    -1     0     0   502   503  0.000000000E+00  0.000000000E+00 -2.757643136E+03  2.757643136E+03  0.000000000E+00  0.00000E+00  9.000E+00
      25     1     1     2     0     0  4.761246758E+01 -2.136746651E+01 -2.121010435E+03  2.125331255E+03  1.249966423E+02  0.00000E+00  9.000E+00
       5     1     1     2   501     0 -2.571437843E+01  1.558508303E+01 -2.530016711E+02  2.548264746E+02  4.750000000E+00  0.00000E+00  9.000E+00
      -5     1     1     2     0   503 -3.981479164E+01  1.381117311E+01 -3.757475846E+02  3.781332781E+02  4.750000000E+00  0.00000E+00  9.000E+00
      -3     1     1     2     0   501  1.791670248E+01 -8.028789637E+00  2.301933340E+01  3.025490706E+01  1.581489940E-06  0.00000E+00  9.000E+00
#rwgt            1           9  -1.4676561770555660E-002          12     1206236           0
</event>
<event>
      6   9999  3.45752E-01  1.26358E+01 -1.00000E+00  1.77090E-01
      21    -1     0     0   501   511  0.000000000E+00  0.000000000E+00  1.499760595E+01  1.499760595E+01  0.000000000E+00  0.00000E+00  9.000E+00
      21    -1     0     0   502   503  0.000000000E+00  0.000000000E+00 -8.859386035E+02  8.859386035E+02  0.000000000E+00  0.00000E+00  9.000E+00
      25     1     1     2     0     0  1.529811081E+01 -4.392660003E+01 -5.864987720E+02  6.014714898E+02  1.249942602E+02  0.00000E+00  9.000E+00
       5     1     1     2   501     0  1.028923810E+00  1.742835245E+00 -2.360652578E-01  5.168596106E+00  4.750000000E+00  0.00000E+00  9.000E+00
      -5     1     1     2     0   503 -1.512626069E+01  5.476233108E+01 -2.665837266E+02  2.726117430E+02  4.750000000E+00  0.00000E+00  9.000E+00
      21     1     1     2   502   511 -1.200773933E+00 -1.257856629E+01 -1.762243366E+01  2.168438046E+01  4.768371582E-07  0.00000E+00  9.000E+00
#rwgt            1           9   8.3977870152451137E-005          12     1207659           0
</event>
<event>
      6   9999  3.45752E-01  2.48749E+01 -1.00000E+00  1.53301E-01
      21    -1     0     0   502   503  0.000000000E+00  0.000000000E+00  8.402820426E+02  8.402820426E+02  0.000000000E+00  0.00000E+00  9.000E+00
      21    -1     0     0   512   502  0.000000000E+00  0.000000000E+00 -1.138457739E+01  1.138457739E+01  0.000000000E+00  0.00000E+00  9.000E+00
      25     1     1     2     0     0  2.101024647E+01 -2.335998184E+01  7.050387331E+02  7.167228916E+02  1.249998762E+02  0.00000E+00  9.000E+00
       5     1     1     2   501     0 -1.175185397E+00  1.144296174E+00  3.759161256E+01  3.792601099E+01  4.750000000E+00  0.00000E+00  9.000E+00
      -5     1     1     2     0   503 -4.113242888E+00  2.939140615E+00  6.158810810E+01  6.197753524E+01  4.750000000E+00  0.00000E+00  9.000E+00
      21     1     1     2   512   501 -1.572181819E+01  1.927654505E+01  2.467901148E+01  3.504018213E+01  1.469710828E-06  0.00000E+00  9.000E+00
#rwgt            1           9   3.6833353112195724E-002          12     1209749           0
</event>
<event>
      6   9999  3.45752E-01  1.85596E+01 -1.00000E+00  1.62728E-01
      21    -1     0     0   501   502  0.000000000E+00  0.000000000E+00  8.738131591E+01  8.738131591E+01  0.000000000E+00  0.00000E+00  9.000E+00
      21    -1     0     0   511   503  0.000000000E+00  0.000000000E+00 -1.988356366E+03  1.988356366E+03  0.000000000E+00  0.00000E+00  9.000E+00
      25     1     1     2     0     0  2.813703441E+01  5.867541722E+00 -1.694564696E+03  1.699411924E+03  1.250010268E+02  0.00000E+00  9.000E+00
       5     1     1     2   501     0 -2.813158550E+00 -9.303222252E+00  8.368598148E+01  8.438228370E+01  4.750000000E+00  0.00000E+00  9.000E+00
      -5     1     1     2     0   503 -7.141977918E+00 -2.895641732E-01 -3.049751959E+01  3.168205955E+01  4.750000000E+00  0.00000E+00  9.000E+00
      21     1     1     2   511   502 -1.818189794E+01  3.725244703E+00 -2.595988161E+02  2.602614151E+02  0.000000000E+00  0.00000E+00  9.000E+00
#rwgt            1           9   3.3423631281319110E-003          12     1210653           0
</event>
<event>
      6   9999  3.45752E-01  1.83464E+01 -1.00000E+00  1.63125E-01
      21    -1     0     0   512   502  0.000000000E+00  0.000000000E+00  1.466538337E+03  1.466538337E+03  0.000000000E+00  0.00000E+00  9.000E+00
      21    -1     0     0   502   503  0.000000000E+00  0.000000000E+00 -7.619366440E+00  7.619366440E+00  0.000000000E+00  0.00000E+00  9.000E+00
      25     1     1     2     0     0  2.525719698E+01  3.242204609E+00  6.840088238E+02  6.958027480E+02  1.249998204E+02  0.00000E+00  9.000E+00
       5     1     1     2   501     0  3.417974667E+00  2.566785578E+00  5.713848291E+02  5.714205599E+02  4.750000000E+00  0.00000E+00  9.000E+00
      -5     1     1     2     0   503 -1.094640219E+01 -1.088640127E+00  2.804238901E+01  3.049503139E+01  4.750000000E+00  0.00000E+00  9.000E+00
      21     1     1     2   512   501 -1.772876945E+01 -4.720350060E+00  1.754829291E+02  1.764393646E+02  3.303624740E-06  0.00000E+00  9.000E+00
#rwgt            1           9   2.2388145238550691E-002          12     1213855           0
</event>
<event>
      6   9999  3.45752E-01  1.30193E+01 -1.00000E+00  1.75880E-01
      21    -1     0     0   501   502  0.000000000E+00  0.000000000E+00  2.911833321E+01  2.911833321E+01  0.000000000E+00  0.00000E+00  9.000E+00
      21    -1     0     0   502   511  0.000000000E+00  0.000000000E+00 -2.737495135E+03  2.737495135E+03  0.000000000E+00  0.00000E+00  9.000E+00
      25     1     1     2     0     0  2.999637153E+01  8.048079154E+00 -9.412941857E+02  9.500708802E+02  1.250415113E+02  0.00000E+00  9.000E+00
       5     1     1     2   501     0 -2.282133997E+00  3.621786173E+00  2.324251927E+01  2.410607129E+01  4.750000000E+00  0.00000E+00  9.000E+00
      -5     1     1     2     0   503 -1.657899513E+01 -4.923862127E+00 -7.697169565E+01  7.903361265E+01  4.750000000E+00  0.00000E+00  9.000E+00
      21     1     1     2   503   511 -1.113524241E+01 -6.746003200E+00 -1.713353440E+03  1.713402904E+03  3.051757812E-05  0.00000E+00  9.000E+00
#rwgt            1           9  0.51683869743383148               12     1215198           0
</event>
<event>
      6   9999  3.45752E-01  7.04137E+00 -1.00000E+00  2.04813E-01
      21    -1     0     0   501   502  0.000000000E+00  0.000000000E+00  3.476499972E+02  3.476499972E+02  0.000000000E+00  0.00000E+00  9.000E+00
      21    -1     0     0   512   503  0.000000000E+00  0.000000000E+00 -3.119695766E+01  3.119695766E+01  0.000000000E+00  0.00000E+00  9.000E+00
      25     1     1     2     0     0  1.885296089E-01  1.111027154E+01  1.176049341E+02  1.719947065E+02  1.250111389E+02  0.00000E+00  9.000E+00
       5     1     1     2   501     0 -4.444270625E-01 -8.852114244E-01  1.924828734E+02  1.925440214E+02  4.750000000E+00  0.00000E+00  9.000E+00
      -5     1     1     2     0   503 -5.534689678E-01 -3.230364530E+00  2.738960920E+00  6.387956623E+00  4.750000000E+00  0.00000E+00  9.000E+00
      21     1     1     2   512   502  8.093664215E-01 -6.994695582E+00  3.626271012E+00  7.920270307E+00  4.214684851E-08  0.00000E+00  9.000E+00
#rwgt            1           9  0.98646279627502720               12     1218153           0
</event>
<event>
      6   9999  3.45752E-01  3.31179E+01 -1.00000E+00  1.45113E-01
      21    -1     0     0   502   503  0.000000000E+00  0.000000000E+00  4.673474952E+01  4.673474952E+01  0.000000000E+00  0.00000E+00  9.000E+00
       2    -1     0     0   501     0  0.000000000E+00  0.000000000E+00 -1.590670928E+03  1.590670928E+03  0.000000000E+00  0.00000E+00  9.000E+00
      25     1     1     2     0     0  1.039738074E+02  1.788898810E+01 -2.615289034E+02  3.084696418E+02  1.250023362E+02  0.00000E+00  9.000E+00
       5     1     1     2   501     0 -1.866534696E+02  4.012141790E+01 -8.036918802E+02  8.260704853E+02  4.750000000E+00  0.00000E+00  9.000E+00
      -5     1     1     2     0   503  5.334999534E+01 -7.339116490E+01 -1.734218813E+02  1.957809911E+02  4.750000000E+00  0.00000E+00  9.000E+00
       2     1     1     2   502     0  2.932966687E+01  1.538075890E+01 -3.052935135E+02  3.070845591E+02  0.000000000E+00  0.00000E+00  9.000E+00
#rwgt            1           9   2.9352077671683671E-002          12     1221326           0
</event>
<event>
      6   9999  3.45752E-01  4.74948E+00 -1.00000E+00  2.33360E-01
      21    -1     0     0   501   511  0.000000000E+00  0.000000000E+00  3.395623547E+00  3.395623547E+00  0.000000000E+00  0.00000E+00  9.000E+00
      21    -1     0     0   502   503  0.000000000E+00  0.000000000E+00 -3.017844077E+03  3.017844077E+03  0.000000000E+00  0.00000E+00  9.000E+00
      25     1     1     2     0     0 -6.779839661E+00  1.111140469E+01 -2.430780957E+03  2.434027674E+03  1.250009023E+02  0.00000E+00  9.000E+00
       5     1     1     2   501     0 -1.409893877E+00 -4.334474265E-01 -2.148991675E+00  5.418149374E+00  4.750000000E+00  0.00000E+00  9.000E+00
      -5     1     1     2     0   503  6.592603100E+00 -6.205063491E+00 -5.168851975E+02  5.169863007E+02  4.750000000E+00  0.00000E+00  9.000E+00
      21     1     1     2   502   511  1.597130438E+00 -4.472893770E+00 -6.463330732E+01  6.480757687E+01  1.348699152E-06  0.00000E+00  9.000E+00
#rwgt            1           9   4.8240411676263870E-003          12     1223472           0
</event>
<event>
      6   9999  3.45752E-01  9.33626E+00 -1.00000E+00  1.90391E-01
      21    -1     0     0   502   503  0.000000000E+00  0.000000000E+00  2.887716404E+01  2.887716404E+01  0.000000000E+00  0.00000E+00  9.000E+00
      21    -1     0     0   512   502  0.000000000E+00  0.000000000E+00 -1.228767276E+03  1.228767276E+03  0.000000000E+00  0.00000E+00  9.000E+00
      25     1     1     2     0     0  2.474507051E+01  1.013100339E+01 -2.050196524E+02  2.416034204E+02  1.249967963E+02  0.00000E+00  9.000E+00
       5     1     1     2   501     0 -2.965037853E+01  1.229497925E+01 -8.910331466E+02  8.916237672E+02  4.750000000E+00  0.00000E+00  9.000E+00
      -5     1     1     2     0   503  1.411896496E+01 -2.393402339E+01 -9.692889392E+00  2.981102568E+01  4.750000000E+00  0.00000E+00  9.000E+00
      21     1     1     2   512   501 -9.213656942E+00  1.508040748E+00 -9.414442334E+01  9.460622657E+01  1.348699152E-06  0.00000E+00  9.000E+00
#rwgt            1           9   1.6486243914428545E-003          12     1227675           0
</event>
<event>
      6   9999 -3.45752E-01  2.89084E+01 -1.00000E+00  1.48887E-01
      21    -1     0     0   502   511  0.000000000E+00  0.000000000E+00  1.300161988E+03  1.300161988E+03  0.000000000E+00  0.00000E+00  9.000E+00
      21    -1     0     0   501   502  0.000000000E+00  0.000000000E+00 -3.251889103E+02  3.251889103E+02  0.000000000E+00  0.00000E+00  9.000E+00
      25     1     1     2     0     0 -9.949453608E+00  1.487165036E+01 -1.822538225E+02  2.217275046E+02  1.250058913E+02  0.00000E+00  9.000E+00
       5     1     1     2   501     0 -2.120471911E+00  8.094482789E-01 -1.915081504E+01  1.986121407E+01  4.750000000E+00  0.00000E+00  9.000E+00
      -5     1     1     2     0   503 -1.655566598E+01 -1.164710910E+01 -1.024849555E+02  1.045728159E+02  4.750000000E+00  0.00000E+00  9.000E+00
      21     1     1     2   503   511  2.862559150E+01 -4.033989542E+00  1.278862671E+03  1.279189364E+03  1.525878906E-05  0.00000E+00  9.000E+00
#rwgt            1           9  -2.5897361684045785E-004          12     1230963           0
</event>
<event>
      6   9999  3.45752E-01  8.47567E+00 -1.00000E+00  1.95091E-01
      21    -1     0     0   501   502  0.000000000E+00  0.000000000E+00  6.754408271E+01  6.754408271E+01  0.000000000E+00  0.00000E+00  9.000E+00
      21    -1     0     0   502   512  0.000000000E+00  0.000000000E+00 -1.555447509E+03  1.555447509E+03  0.000000000E+00  0.00000E+00  9.000E+00
      25     1     1     2     0     0 -1.588996496E+02 -1.179926492E+02 -2.647261786E+02  3.533782901E+02  1.249996097E+02  0.00000E+00  9.000E+00
       5     1     1     2   501     0 -2.738732775E+00  1.075116341E+00  1.422317955E+01  1.528129147E+01  4.750000000E+00  0.00000E+00  9.000E+00
      -5     1     1     2     0   503  1.630201533E+02  1.085552594E+02 -1.155123720E+03  1.171619898E+03  4.750000000E+00  0.00000E+00  9.000E+00
      21     1     1     2   503   512 -1.381770937E+00  8.362273416E+00 -8.227670653E+01  8.271211123E+01  0.000000000E+00  0.00000E+00  9.000E+00
#rwgt            1           9   4.6158507196534223E-003          12     1231945           0
</event>
<event>
      6   9999  3.45752E-01  2.54556E+00 -1.00000E+00  2.97006E-01
      21    -1     0     0   501   511  0.000000000E+00  0.000000000E+00  3.540517731E+01  3.540517731E+01  0.000000000E+00  0.00000E+00  9.000E+00
      21    -1     0     0   502   503  0.000000000E+00  0.000000000E+00 -9.421472635E+02  9.421472635E+02  0.000000000E+00  0.00000E+00  9.000E+00
      25     1     1     2     0     0  2.010379351E+01  1.919186122E+01 -5.935006823E+02  6.071567139E+02  1.249949012E+02  0.00000E+00  9.000E+00
       5     1     1     2   501     0 -1.881731987E+00  1.936518639E+00  9.171990297E+00  1.067609131E+01  4.750000000E+00  0.00000E+00  9.000E+00
      -5     1     1     2     0   503 -1.787200920E+01 -1.860700215E+01 -3.404726800E+02  3.414818262E+02  4.750000000E+00  0.00000E+00  9.000E+00
      21     1     1     2   502   511 -3.500523224E-01 -2.521377711E+00  1.805928592E+01  1.823780936E+01  7.152557373E-07  0.00000E+00  9.000E+00
#rwgt            1           9   3.2981225908955910E-006          12     1236787           0
</event>
<event>
      6   9999  3.45752E-01  1.67565E+01 -1.00000E+00  1.66306E-01
      21    -1     0     0   512   502  0.000000000E+00  0.000000000E+00  1.291881059E+01  1.291881059E+01  0.000000000E+00  0.00000E+00  9.000E+00
      21    -1     0     0   502   503  0.000000000E+00  0.000000000E+00 -2.286042466E+03  2.286042466E+03  0.000000000E+00  0.00000E+00  9.000E+00
      25     1     1     2     0     0 -1.940700885E+01 -2.556878850E+01 -2.152521650E+03  2.156386738E+03  1.249956570E+02  0.00000E+00  9.000E+00
       5     1     1     2   501     0  4.930628019E+00 -1.489537875E+00  6.076810817E+00  9.274693820E+00  4.750000000E+00  0.00000E+00  9.000E+00
      -5     1     1     2     0   503  1.774136653E+01  1.062295627E+01 -9.626543433E+01  9.857585726E+01  4.750000000E+00  0.00000E+00  9.000E+00
      21     1     1     2   512   501 -3.264985703E+00  1.643537010E+01 -3.041338161E+01  3.472398743E+01  1.390207266E-06  0.00000E+00  9.000E+00
#rwgt            1           9   5.3592560321645707E-004          12     1244821           0
</event>
<event>
      6   9999  3.45752E-01  8.17272E+00 -1.00000E+00  1.96923E-01
      21    -1     0     0   501   502  0.000000000E+00  0.000000000E+00  4.026619114E+01  4.026619114E+01  0.000000000E+00  0.00000E+00  9.000E+00
      21    -1     0     0   502   511  0.000000000E+00  0.000000000E+00 -1.434312173E+03  1.434312173E+03  0.000000000E+00  0.00000E+00  9.000E+00
      25     1     1     2     0     0  6.457686996E+00  8.588221192E+00 -1.097997355E+03  1.105142017E+03  1.250009058E+02  0.00000E+00  9.000E+00
       5     1     1     2   501     0 -8.981889803E+00 -8.253886458E+00  3.533790998E+01  3.768463039E+01  4.750000000E+00  0.00000E+00  9.000E+00
      -5     1     1     2     0   503 -5.400066456E+00  1.665510702E+00 -1.621427660E+02  1.623107320E+02  4.750000000E+00  0.00000E+00  9.000E+00
      21     1     1     2   503   511  7.924269263E+00 -1.999845436E+00 -1.692437715E+02  1.694409857E+02  3.303624740E-06  0.00000E+00  9.000E+00
#rwgt            1           9   5.9957274339040613E-004          12     1246577           0
</event>
<event>
      6   9999  3.45752E-01  1.91404E+01 -1.00000E+00  1.61680E-01
      21    -1     0     0   501   502  0.000000000E+00  0.000000000E+00  3.301460732E+01  3.301460732E+01  0.000000000E+00  0.00000E+00  9.000E+00
      21    -1     0     0   502   512  0.000000000E+00  0.000000000E+00 -1.674514731E+03  1.674514731E+03  0.000000000E+00  0.00000E+00  9.000E+00
      25     1     1     2     0     0  2.314274215E+01  8.267992904E+01 -4.505499322E+02  4.753862630E+02  1.250012017E+02  0.00000E+00  9.000E+00
       5     1     1     2   501     0  3.424612334E+00 -1.410462230E+00  1.807811318E+01  1.905513184E+01  4.750000000E+00  0.00000E+00  9.000E+00
      -5     1     1     2     0   503 -1.039053815E+01 -7.103882711E+01 -6.974245452E+02  7.011262633E+02  4.750000000E+00  0.00000E+00  9.000E+00
      21     1     1     2   503   512 -1.617681633E+01 -1.023063970E+01 -5.116037590E+02  5.119616798E+02  7.629394531E-06  0.00000E+00  9.000E+00
#rwgt            1           9   1.6158238534770399E-003          12     1250730           0
</event>
<event>
      6   9999 -3.45752E-01  2.07867E+01 -1.00000E+00  1.58942E-01
      21    -1     0     0   511   502  0.000000000E+00  0.000000000E+00  4.841137643E+01  4.841137643E+01  0.000000000E+00  0.00000E+00  9.000E+00
      21    -1     0     0   502   503  0.000000000E+00  0.000000000E+00 -1.706338729E+03  1.706338729E+03  0.000000000E+00  0.00000E+00  9.000E+00
      25     1     1     2     0     0  1.001725193E+01  6.210888051E+00 -1.596546449E+03  1.601474563E+03  1.249851602E+02  0.00000E+00  9.000E+00
       5     1     1     2   501     0 -4.244061785E+00 -1.065938012E+01  8.549285740E+00  1.507604828E+01  4.750000000E+00  0.00000E+00  9.000E+00
      -5     1     1     2     0   503 -1.589698094E+00 -1.591284988E+01 -1.001449734E+02  1.015249926E+02  4.750000000E+00  0.00000E+00  9.000E+00
      21     1     1     2   511   501 -4.183492049E+00  2.036134195E+01  3.021478457E+01  3.667450148E+01  7.539457465E-07  0.00000E+00  9.000E+00
#rwgt            1           9 -0.34727938854755497               12     1253279           0
</event>
<event>
      6   9999  3.45752E-01  8.95632E+00 -1.00000E+00  1.92381E-01
      21    -1     0     0   512   502  0.000000000E+00  0.000000000E+00  9.829892308E+01  9.829892308E+01  0.000000000E+00  0.00000E+00  9.000E+00
      21    -1     0     0   502   503  0.000000000E+00  0.000000000E+00 -9.726633940E+02  9.726633940E+02  0.000000000E+00  0.00000E+00  9.000E+00
      25     1     1     2     0     0 -1.027047615E+01 -1.816964676E+00 -2.525426583E+02  2.819759498E+02  1.249954318E+02  0.00000E+00  9.000E+00
       5     1     1     2   501     0  1.404452299E+00  7.253638887E-01  2.744505703E+00  5.709067401E+00  4.750000000E+00  0.00000E+00  9.000E+00
      -5     1     1     2     0   503  7.910640403E+00  9.996815122E+00 -7.036031355E+02  7.037346441E+02  4.750000000E+00  0.00000E+00  9.000E+00
      21     1     1     2   512   501  9.553834469E-01 -8.905214334E+00  7.903681723E+01  7.954265571E+01  2.336015456E-06  0.00000E+00  9.000E+00
#rwgt            1           9   4.4037655374124055E-004          12     1255212           0
</event>
<event>
      6   9999 -3.45752E-01  4.07561E+00 -1.00000E+00  2.46179E-01
      21    -1     0     0   511   502  0.000000000E+00  0.000000000E+00  9.074126223E+00  9.074126223E+00  0.000000000E+00  0.00000E+00  9.000E+00
      21    -1     0     0   502   503  0.000000000E+00  0.000000000E+00 -3.283498202E+03  3.283498202E+03  0.000000000E+00  0.00000E+00  9.000E+00
      25     1     1     2     0     0 -1.937188423E+00 -2.583728633E-01 -3.113511003E+03  3.116019784E+03  1.249988169E+02  0.00000E+00  9.000E+00
       5     1     1     2   501     0  1.687048212E+00  4.790274470E-01 -2.557242836E+00  5.672529408E+00  4.750000000E+00  0.00000E+00  9.000E+00
      -5     1     1     2     0   503  8.191601235E-01  3.815041980E+00 -1.638910001E+02  1.640062437E+02  4.750000000E+00  0.00000E+00  9.000E+00
      21     1     1     2   511   501 -5.690199129E-01 -4.035696564E+00  5.535170176E+00  6.873771839E+00  6.822063412E-07  0.00000E+00  9.000E+00
#rwgt            1           9  -3.9450250328519442E-004          12     1258494           0
</event>
<event>
      6   9999 -3.45752E-01  4.80090E+00 -1.00000E+00  2.32510E-01
      21    -1     0     0   501   502  0.000000000E+00  0.000000000E+00  5.286841961E+01  5.286841961E+01  0.000000000E+00  0.00000E+00  9.000E+00
      21    -1     0     0   502   512  0.000000000E+00  0.000000000E+00 -2.875777526E+02  2.875777526E+02  0.000000000E+00  0.00000E+00  9.000E+00
      25     1     1     2     0     0 -7.073948734E+00 -3.733221935E+00 -6.556194929E+01  1.413759319E+02  1.249992289E+02  0.00000E+00  9.000E+00
       5     1     1     2   501     0 -9.537676082E-02  5.029153140E-01  1.298254270E+01  1.383368843E+01  4.750000000E+00  0.00000E+00  9.000E+00
      -5     1     1     2     0   503  5.248012954E+00  7.629985708E+00 -1.631413524E+01  1.935127465E+01  4.750000000E+00  0.00000E+00  9.000E+00
      21     1     1     2   503   512  1.921312541E+00 -4.399679087E+00 -1.658157911E+02  1.658852772E+02  0.000000000E+00  0.00000E+00  9.000E+00
#rwgt            1           9  -1.9981042154167375E-003          12     1263065           0
</event>
<event>
      6   9999  3.45752E-01  7.78828E+01 -1.00000E+00  1.25236E-01
      21    -1     0     0   511   502  0.000000000E+00  0.000000000E+00  4.397296185E+01  4.397296185E+01  0.000000000E+00  0.00000E+00  9.000E+00
      21    -1     0     0   502   503  0.000000000E+00  0.000000000E+00 -1.335228435E+03  1.335228435E+03  0.000000000E+00  0.00000E+00  9.000E+00
      25     1     1     2     0     0 -9.502238590E+01  1.120309705E+02 -8.347370808E+02  8.567328821E+02  1.250001801E+02  0.00000E+00  9.000E+00
       5     1     1     2   501     0  1.572455527E+00  1.376902177E+00 -2.257218686E+00  5.659152957E+00  4.750000000E+00  0.00000E+00  9.000E+00
      -5     1     1     2     0   503  1.544718976E+02 -6.501312679E+01 -3.301895648E+02  3.703187614E+02  4.750000000E+00  0.00000E+00  9.000E+00
      21     1     1     2   511   501 -6.102196721E+01 -4.839474590E+01 -1.240716092E+02  1.464906008E+02  1.348699152E-06  0.00000E+00  9.000E+00
#rwgt            1           9   8.5196390630717228E-004          12     1266845           0
</event>
<event>
      6   9999  3.45752E-01  8.13681E+00 -1.00000E+00  1.97147E-01
      21    -1     0     0   501   512  0.000000000E+00  0.000000000E+00  3.189400013E+01  3.189400013E+01  0.000000000E+00  0.00000E+00  9.000E+00
      21    -1     0     0   502   503  0.000000000E+00  0.000000000E+00 -1.087609562E+03  1.087609562E+03  0.000000000E+00  0.00000E+00  9.000E+00
      25     1     1     2     0     0 -4.176655810E+00 -3.499365609E+00 -1.029164616E+03  1.036743010E+03  1.250062818E+02  0.00000E+00  9.000E+00
       5     1     1     2   501     0  6.272835987E+00  9.360394316E+00  2.104058191E+01  2.433585914E+01  4.750000000E+00  0.00000E+00  9.000E+00
      -5     1     1     2     0   503 -9.855213613E-01  2.199624270E+00 -4.972768978E+01  5.001215082E+01  4.750000000E+00  0.00000E+00  9.000E+00
      21     1     1     2   502   512 -1.110658817E+00 -8.060652977E+00  2.136161998E+00  8.412542868E+00  1.931411236E-07  0.00000E+00  9.000E+00
#rwgt            1           9   4.5755049319043230E-003          12     1267841           0
</event>
<event>
      6   9999 -3.45752E-01  8.17260E+00 -1.00000E+00  1.96924E-01
      21    -1     0     0   501   502  0.000000000E+00  0.000000000E+00  1.402277279E+01  1.402277279E+01  0.000000000E+00  0.00000E+00  9.000E+00
      21    -1     0     0   502   511  0.000000000E+00  0.000000000E+00 -1.155646896E+03  1.155646896E+03  0.000000000E+00  0.00000E+00  9.000E+00
      25     1     1     2     0     0 -2.444911004E+01  1.335494461E+01 -1.005087422E+03  1.013213744E+03  1.250010102E+02  0.00000E+00  9.000E+00
       5     1     1     2   501     0 -7.520747701E-01  2.231737251E+00  5.933402391E+00  7.957011471E+00  4.750000000E+00  0.00000E+00  9.000E+00
      -5     1     1     2     0   503  1.714878303E+01 -1.698318583E+01 -5.056027018E+01  5.622644200E+01  4.750000000E+00  0.00000E+00  9.000E+00
      21     1     1     2   503   511  8.052401786E+00  1.396503963E+00 -9.190983338E+01  9.227247082E+01  0.000000000E+00  0.00000E+00  9.000E+00
#rwgt            1           9  -3.5283758932523583               12     1271443           0
</event>
<event>
      6   9999  3.45752E-01  7.68188E+00 -1.00000E+00  2.00125E-01
      21    -1     0     0   501   502  0.000000000E+00  0.000000000E+00  8.739062070E+01  8.739062070E+01  0.000000000E+00  0.00000E+00  9.000E+00
      21    -1     0     0   512   503  0.000000000E+00  0.000000000E+00 -1.161467511E+03  1.161467511E+03  0.000000000E+00  0.00000E+00  9.000E+00
      25     1     1     2     0     0  6.090907044E+00 -4.821150643E+01 -8.498867648E+02  8.604061901E+02  1.250194002E+02  0.00000E+00  9.000E+00
       5     1     1     2   501     0  1.510537141E+01  8.541850336E+00  7.799421118E+01  8.004245705E+01  4.750000000E+00  0.00000E+00  9.000E+00
      -5     1     1     2     0   503 -1.443031611E+01  4.330738985E+01 -1.725969172E+02  1.785945754E+02  4.750000000E+00  0.00000E+00  9.000E+00
      21     1     1     2   512   502 -6.765962347E+00 -3.637733760E+00 -1.295874200E+02  1.298149096E+02  2.697398305E-06  0.00000E+00  9.000E+00
#rwgt            1           9   4.0620649040221859E-003          12     1274620           0
</event>
<event>
      6   9999 -3.45752E-01  4.11993E+01 -1.00000E+00  1.39446E-01
      21    -1     0     0   511   503  0.000000000E+00  0.000000000E+00  1.369444186E+02  1.369444186E+02  0.000000000E+00  0.00000E+00  9.000E+00
      21    -1     0     0   501   502  0.000000000E+00  0.000000000E+00 -1.011499875E+03  1.011499875E+03  0.000000000E+00  0.00000E+00  9.000E+00
      25     1     1     2     0     0 -7.860852529E+01  1.270846816E+02 -6.172692717E+02  6.472837503E+02  1.250003322E+02  0.00000E+00  9.000E+00
       5     1     1     2   501     0  6.628235700E+01 -9.237159745E+01 -3.054914543E+02  3.259960951E+02  4.750000000E+00  0.00000E+00  9.000E+00
      -5     1     1     2     0   503  1.845368845E+01  6.028028041E+00 -5.794737601E+01  6.129711760E+01  4.750000000E+00  0.00000E+00  9.000E+00
      21     1     1     2   511   502 -6.127520156E+00 -4.074111221E+01  1.061526458E+02  1.138673304E+02  4.862803949E-06  0.00000E+00  9.000E+00
#rwgt            1           9  -2.6341565440923310E-004          12     1279459           0
</event>
<event>
      6   9999  3.45752E-01  8.68295E+00 -1.00000E+00  1.93894E-01
      21    -1     0     0   502   503  0.000000000E+00  0.000000000E+00  1.097176113E+01  1.097176113E+01  0.000000000E+00  0.00000E+00  9.000E+00
      21    -1     0     0   512   502  0.000000000E+00  0.000000000E+00 -8.330419994E+02  8.330419994E+02  0.000000000E+00  0.00000E+00  9.000E+00
      25     1     1     2     0     0 -2.008085372E+00 -4.106720074E+00 -3.732367485E+02  3.936418511E+02  1.250093554E+02  0.00000E+00  9.000E+00
       5     1     1     2   501     0 -3.807508244E+00  8.227886409E+00 -3.683069615E+02  3.684491493E+02  4.750000000E+00  0.00000E+00  9.000E+00
      -5     1     1     2     0   503 -6.599385986E-01  1.663397880E+00 -1.528064412E+01  1.610164576E+01  4.750000000E+00  0.00000E+00  9.000E+00
      21     1     1     2   512   501  6.475532215E+00 -5.784564214E+00 -6.524588420E+01  6.582111444E+01  0.000000000E+00  0.00000E+00  9.000E+00
#rwgt            1           9  0.44187356310326920               12     1280403           0
</event>
<event>
      6   9999  3.45752E-01  1.04395E+01 -1.00000E+00  1.85247E-01
      21    -1     0     0   501   502  0.000000000E+00  0.000000000E+00  1.403452270E+01  1.403452270E+01  0.000000000E+00  0.00000E+00  9.000E+00
      21    -1     0     0   511   503  0.000000000E+00  0.000000000E+00 -1.084119646E+03  1.084119646E+03  0.000000000E+00  0.00000E+00  9.000E+00
      25     1     1     2     0     0  3.255747182E+01  3.801756520E+00 -4.602084933E+02  4.780081825E+02  1.250020917E+02  0.00000E+00  9.000E+00
       5     1     1     2   501     0 -4.761883770E-01 -2.621692974E-01  3.050022453E+00  5.671033863E+00  4.750000000E+00  0.00000E+00  9.000E+00
      -5     1     1     2     0   503 -2.704122227E+01 -1.268179923E+01 -3.380366910E+02  3.393868334E+02  4.750000000E+00  0.00000E+00  9.000E+00
      21     1     1     2   511   502 -5.040061181E+00  9.142212009E+00 -2.748899615E+02  2.750881190E+02  3.814697266E-06  0.00000E+00  9.000E+00
#rwgt            1           9   3.0495125666106786E-004          12     1282790           0
</event>
<event>
      6   9999 -3.45752E-01  7.02964E+00 -1.00000E+00  2.04905E-01
      21    -1     0     0   501   502  0.000000000E+00  0.000000000E+00  8.095195853E+02  8.095195853E+02  0.000000000E+00  0.00000E+00  9.000E+00
      21    -1     0     0   512   503  0.000000000E+00  0.000000000E+00 -3.394589937E+01  3.394589937E+01  0.000000000E+00  0.00000E+00  9.000E+00
      25     1     1     2     0     0 -7.502548985E+00  2.246127036E+01  1.292426544E+02  1.813228650E+02  1.249540745E+02  0.00000E+00  9.000E+00
       5     1     1     2   501     0  7.292995158E+00  1.901191429E+00  5.503565861E+02  5.504286844E+02  4.750000000E+00  0.00000E+00  9.000E+00
      -5     1     1     2     0   503  6.499588187E+00 -2.122378795E+01  1.007110310E+02  1.032374355E+02  4.750000000E+00  0.00000E+00  9.000E+00
      21     1     1     2   512   502 -6.290034360E+00 -3.138673836E+00 -4.736585541E+00  8.476499766E+00  4.655271575E-07  0.00000E+00  9.000E+00
#rwgt            1           9  -9.4285562818681454E-005          12     1285265           0
</event>
<event>
      6   9999  3.45752E-01  4.63684E+01 -1.00000E+00  1.36563E-01
      21    -1     0     0   511   502  0.000000000E+00  0.000000000E+00  7.757426024E+02  7.757426024E+02  0.000000000E+00  0.00000E+00  9.000E+00
      21    -1     0     0   502   503  0.000000000E+00  0.000000000E+00 -6.949164796E+01  6.949164796E+01  0.000000000E+00  0.00000E+00  9.000E+00
      25     1     1     2     0     0 -2.805061146E+01 -1.359416287E+01 -3.125182482E-01  1.288264209E+02  1.249980440E+02  0.00000E+00  9.000E+00
       5     1     1     2   501     0 -8.328573004E+00 -7.968873416E+00  5.263816973E+02  5.265293172E+02  4.750000000E+00  0.00000E+00  9.000E+00
      -5     1     1     2     0   503  5.617086264E-01 -7.884153568E+00  1.049637018E+01  1.397181739E+01  4.750000000E+00  0.00000E+00  9.000E+00
      21     1     1     2   511   501  3.581747583E+01  2.944718986E+01  1.696854052E+02  1.759066948E+02  3.303624740E-06  0.00000E+00  9.000E+00
#rwgt            1           9   1.0141098291048498               12     1289187           0
</event>
<event>
      6   9999 -3.45752E-01  1.18938E+01 -1.00000E+00  1.79594E-01
      21    -1     0     0   501   512  0.000000000E+00  0.000000000E+00  4.188854549E+00  4.188854549E+00  0.000000000E+00  0.00000E+00  9.000E+00
      21    -1     0     0   502   503  0.000000000E+00  0.000000000E+00 -5.336934652E+03  5.336934652E+03  0.000000000E+00  0.00000E+00  9.000E+00
      25     1     1     2     0     0 -1.616961648E+01  5.655154065E+01 -3.870641007E+03  3.873105556E+03  1.250012492E+02  0.00000E+00  9.000E+00
       5     1     1     2   501     0  1.557735302E+01 -7.254641803E+01 -1.197709148E+03  1.200014751E+03  4.750000000E+00  0.00000E+00  9.000E+00
      -5     1     1     2     0   503 -3.152265432E+00  4.705876037E+00 -2.459145128E+02  2.460255925E+02  4.750000000E+00  0.00000E+00  9.000E+00
      21     1     1     2   502   512  3.744528895E+00  1.128900134E+01 -1.848112959E+01  2.197760676E+01  2.759894586E-06  0.00000E+00  9.000E+00
#rwgt            1           9  -1.1543837756959165E-002          12     1290253           0
</event>
<event>
      6   9999  3.45752E-01  2.74709E+01 -1.00000E+00  1.50355E-01
      21    -1     0     0   502   503  0.000000000E+00  0.000000000E+00  5.737309913E+01  5.737309913E+01  0.000000000E+00  0.00000E+00  9.000E+00
      21    -1     0     0   511   502  0.000000000E+00  0.000000000E+00 -1.135530456E+03  1.135530456E+03  0.000000000E+00  0.00000E+00  9.000E+00
      25     1     1     2     0     0 -4.728020748E+00  1.633001935E+01 -7.054804009E+01  1.445393890E+02  1.250023412E+02  0.00000E+00  9.000E+00
       5     1     1     2   501     0 -1.357673116E+00  1.989973328E+00  9.362007461E+00  1.077093096E+01  4.750000000E+00  0.00000E+00  9.000E+00
      -5     1     1     2     0   503 -1.117409997E+01  3.051681965E+00  6.257205186E+00  1.399601335E+01  4.750000000E+00  0.00000E+00  9.000E+00
      21     1     1     2   511   501  1.725979383E+01 -2.137167464E+01 -1.023228530E+03  1.023597222E+03  1.525878906E-05  0.00000E+00  9.000E+00
#rwgt            1           9   1.0043163469524797E-003          12     1292104           0
</event>
<event>
      6   9999  3.45752E-01  2.60689E+01 -1.00000E+00  1.51895E-01
      21    -1     0     0   501   512  0.000000000E+00  0.000000000E+00  3.538527528E+01  3.538527528E+01  0.000000000E+00  0.00000E+00  9.000E+00
      21    -1     0     0   502   503  0.000000000E+00  0.000000000E+00 -1.078925344E+03  1.078925344E+03  0.000000000E+00  0.00000E+00  9.000E+00
      25     1     1     2     0     0 -3.239152497E+01 -3.744178960E+01 -2.074970134E+02  2.472479063E+02  1.250016724E+02  0.00000E+00  9.000E+00
       5     1     1     2   501     0  6.043255392E-01 -4.285149974E+00  8.636539667E+00  1.076475904E+01  4.750000000E+00  0.00000E+00  9.000E+00
      -5     1     1     2     0   503  2.283075474E+01  1.724493332E+01 -8.196350711E+02  8.201480619E+02  4.750000000E+00  0.00000E+00  9.000E+00
      21     1     1     2   502   512  8.956444690E+00  2.448200625E+01 -2.504452436E+01  3.614989256E+01  5.840038640E-07  0.00000E+00  9.000E+00
#rwgt            1           9  0.39825345790390576               12     1292933           0
</event>
<event>
      6   9999 -3.45752E-01  6.59148E+00 -1.00000E+00  2.08524E-01
      21    -1     0     0   501   502  0.000000000E+00  0.000000000E+00  3.866334087E+01  3.866334087E+01  0.000000000E+00  0.00000E+00  9.000E+00
      21    -1     0     0   502   511  0.000000000E+00  0.000000000E+00 -2.011686917E+02  2.011686917E+02  0.000000000E+00  0.00000E+00  9.000E+00
      25     1     1     2     0     0  1.481636236E-01 -8.665821483E+00 -1.218988511E+02  1.748134302E+02  1.250011482E+02  0.00000E+00  9.000E+00
       5     1     1     2   501     0  6.032971516E-01 -6.553406703E-01  1.022997544E+01  1.131407692E+01  4.750000000E+00  0.00000E+00  9.000E+00
      -5     1     1     2     0   503 -4.434675202E+00  3.854765387E+00 -1.111532738E+01  1.344018464E+01  4.750000000E+00  0.00000E+00  9.000E+00
      21     1     1     2   503   511  3.683214427E+00  5.466396767E+00 -3.972114784E+01  4.026434090E+01  6.743495762E-07  0.00000E+00  9.000E+00
#rwgt            1           9 -0.30387877304858485               12     1295074           0
</event>
<event>
      6   9999  3.45752E-01  2.44157E+01 -1.00000E+00  1.53867E-01
      21    -1     0     0   512   502  0.000000000E+00  0.000000000E+00  1.654940966E+02  1.654940966E+02  0.000000000E+00  0.00000E+00  9.000E+00
      21    -1     0     0   502   503  0.000000000E+00  0.000000000E+00 -1.906805496E+02  1.906805496E+02  0.000000000E+00  0.00000E+00  9.000E+00
      25     1     1     2     0     0  7.072616418E+00 -3.057608556E+01 -1.226454676E+02  1.779071235E+02  1.249964598E+02  0.00000E+00  9.000E+00
       5     1     1     2   501     0 -5.237361761E+00 -1.893171007E+00  1.059143223E+02  1.061669450E+02  4.750000000E+00  0.00000E+00  9.000E+00
      -5     1     1     2     0   503 -2.159261650E+01  1.812450393E+01 -2.860660438E+01  4.044303456E+01  4.750000000E+00  0.00000E+00  9.000E+00
      21     1     1     2   512   501  1.975736185E+01  1.434475264E+01  2.015129670E+01  3.165754308E+01  3.371747881E-07  0.00000E+00  9.000E+00
#rwgt            1           9   4.6347874194588691E-003          12     1298446           0
</event>
<event>
      6   9999  3.45752E-01  1.27244E+01 -1.00000E+00  1.76806E-01
      21    -1     0     0   502   503  0.000000000E+00  0.000000000E+00  9.467526134E+00  9.467526134E+00  0.000000000E+00  0.00000E+00  9.000E+00
      21    -1     0     0   501   511  0.000000000E+00  0.000000000E+00 -9.761204094E+02  9.761204094E+02  0.000000000E+00  0.00000E+00  9.000E+00
      25     1     1     2     0     0 -3.014921521E+01 -1.178725508E+01 -6.310265016E+02  6.441025665E+02  1.250030238E+02  0.00000E+00  9.000E+00
       5     1     1     2   501     0  2.031183047E+01 -2.054518702E+00 -8.627491635E+01  8.878465630E+01  4.750000000E+00  0.00000E+00  9.000E+00
      -5     1     1     2     0   503  2.256130733E+01  1.373261738E+01 -1.348427279E+02  1.374871672E+02  4.750000000E+00  0.00000E+00  9.000E+00
      21     1     1     2   502   511 -1.272392259E+01  1.091563921E-01 -1.145087374E+02  1.152135455E+02  1.907348633E-06  0.00000E+00  9.000E+00
#rwgt            1           9   7.9972210323755479E-004          12     1301148           0
</event>
<event>
      6   9999  3.45752E-01  2.33555E+01 -1.00000E+00  1.55233E-01
      21    -1     0     0   501   502  0.000000000E+00  0.000000000E+00  5.307101089E+01  5.307101089E+01  0.000000000E+00  0.00000E+00  9.000E+00
      21    -1     0     0   512   503  0.000000000E+00  0.000000000E+00 -1.541704402E+03  1.541704402E+03  0.000000000E+00  0.00000E+00  9.000E+00
      25     1     1     2     0     0  1.395244418E+02 -4.069694266E+01 -3.610249797E+02  4.087628055E+02  1.249987368E+02  0.00000E+00  9.000E+00
       5     1     1     2   501     0  1.997084737E+00  3.886778762E+00  2.414624851E+01  2.499398355E+01  4.750000000E+00  0.00000E+00  9.000E+00
      -5     1     1     2     0   503 -1.192030948E+02  2.992765897E+01 -9.600424718E+02  9.678890188E+02  4.750000000E+00  0.00000E+00  9.000E+00
      21     1     1     2   512   502 -2.231843174E+01  6.882504930E+00 -1.917121886E+02  1.931296055E+02  2.697398305E-06  0.00000E+00  9.000E+00
#rwgt            1           9   1.8161355169420796E-004          12     1303180           0
</event>
<event>
      6   9999 -3.45752E-01  1.05299E+01 -1.00000E+00  1.84862E-01
      21    -1     0     0   501   502  0.000000000E+00  0.000000000E+00  4.864474960E+03  4.864474960E+03  0.000000000E+00  0.00000E+00  9.000E+00
      21    -1     0     0   502   511  0.000000000E+00  0.000000000E+00 -4.467871739E+01  4.467871739E+01  0.000000000E+00  0.00000E+00  9.000E+00
      25     1     1     2     0     0  5.230858451E+00 -5.610823738E+00  9.981594881E+01  1.601756630E+02  1.250366993E+02  0.00000E+00  9.000E+00
       5     1     1     2   501     0  5.188434342E-01 -4.053863755E+00  4.529358203E+03  4.529362537E+03  4.750000000E+00  0.00000E+00  9.000E+00
      -5     1     1     2     0   503 -1.539424326E+01  5.438499963E+00  2.028027682E+02  2.035143369E+02  4.750000000E+00  0.00000E+00  9.000E+00
      21     1     1     2   503   511  9.644541378E+00  4.226187530E+00 -1.218067683E+01  1.610114056E+01  1.227334755E-06  0.00000E+00  9.000E+00
#rwgt            1           9  -8.4717458664525253E-003          12     1305446           0
</event>
<event>
      6   9999  3.45752E-01  2.86202E+01 -1.00000E+00  1.49173E-01
      21    -1     0     0   502   503  0.000000000E+00  0.000000000E+00  1.273475824E+01  1.273475824E+01  0.000000000E+00  0.00000E+00  9.000E+00
      21    -1     0     0   501   512  0.000000000E+00  0.000000000E+00 -6.659991705E+02  6.659991705E+02  0.000000000E+00  0.00000E+00  9.000E+00
      25     1     1     2     0     0 -3.906933197E+01 -4.104077613E+00 -3.955647979E+02  4.167030048E+02  1.250065145E+02  0.00000E+00  9.000E+00
       5     1     1     2   501     0  1.160673239E+01  3.943515845E+00 -8.677443731E+01  8.776464564E+01  4.750000000E+00  0.00000E+00  9.000E+00
      -5     1     1     2     0   503 -1.156007128E+00  4.606963757E-01 -1.665521243E+01  1.736396253E+01  4.750000000E+00  0.00000E+00  9.000E+00
      21     1     1     2   502   512  2.861860670E+01 -3.001346083E-01 -1.542699646E+02  1.569023158E+02  1.907348633E-06  0.00000E+00  9.000E+00
#rwgt            1           9   10.404796171669418               12     1310161           0
</event>
<event>
      6   9999  3.45752E-01  2.87622E+00 -1.00000E+00  2.81787E-01
      21    -1     0     0   501   502  0.000000000E+00  0.000000000E+00  2.393823386E+01  2.393823386E+01  0.000000000E+00  0.00000E+00  9.000E+00
      21    -1     0     0   502   511  0.000000000E+00  0.000000000E+00 -2.460603044E+02  2.460603044E+02  0.000000000E+00  0.00000E+00  9.000E+00
      25     1     1     2     0     0 -1.313134337E+00  5.631678256E+00 -2.047161606E+02  2.399123292E+02  1.249631112E+02  0.00000E+00  9.000E+00
       5     1     1     2   501     0 -1.078220400E+00 -3.574186202E-02  4.196814606E+00  6.429587043E+00  4.750000000E+00  0.00000E+00  9.000E+00
      -5     1     1     2     0   503  2.371225273E-02 -3.962867815E+00 -1.049412772E+01  1.218171171E+01  4.750000000E+00  0.00000E+00  9.000E+00
      21     1     1     2   503   511  2.367642484E+00 -1.633068579E+00 -1.110859679E+01  1.147491031E+01  1.192092896E-07  0.00000E+00  9.000E+00
#rwgt            1           9   2.3611194990042229E-004          12     1311377           0
</event>
<event>
      6   9999  3.45752E-01  1.68836E+01 -1.00000E+00  1.66036E-01
      21    -1     0     0   501   502  0.000000000E+00  0.000000000E+00  8.628432791E+00  8.628432791E+00  0.000000000E+00  0.00000E+00  9.000E+00
      21    -1     0     0   512   503  0.000000000E+00  0.000000000E+00 -9.152661187E+02  9.152661187E+02  0.000000000E+00  0.00000E+00  9.000E+00
      25     1     1     2     0     0 -1.913542963E+00  2.887841000E+01 -6.103074730E+02  6.236490306E+02  1.250011105E+02  0.00000E+00  9.000E+00
       5     1     1     2   501     0 -3.410456821E-01  7.230974082E-01 -4.030596629E+00  6.280715820E+00  4.750000000E+00  0.00000E+00  9.000E+00
      -5     1     1     2     0   503 -2.774597982E-03 -1.286950363E+01 -1.021316716E+02  1.030488475E+02  4.750000000E+00  0.00000E+00  9.000E+00
      21     1     1     2   512   502  2.257363243E+00 -1.673200378E+01 -1.901679447E+02  1.909159575E+02  3.814697266E-06  0.00000E+00  9.000E+00
#rwgt            1           9   7.8669883488227891E-005          12     1317140           0
</event>
<event>
      6   9999  3.45752E-01  1.14385E+01 -1.00000E+00  1.81248E-01
      21    -1     0     0   511   502  0.000000000E+00  0.000000000E+00  3.023750926E+01  3.023750926E+01  0.000000000E+00  0.00000E+00  9.000E+00
      21    -1     0     0   502   503  0.000000000E+00  0.000000000E+00 -1.060044163E+03  1.060044163E+03  0.000000000E+00  0.00000E+00  9.000E+00
      25     1     1     2     0     0  7.941607472E+00 -3.757523111E+00 -1.016817211E+03  1.024510355E+03  1.250081508E+02  0.00000E+00  9.000E+00
       5     1     1     2   501     0  2.594543952E+00 -7.878289190E+00  1.479166227E+01  1.761121437E+01  4.750000000E+00  0.00000E+00  9.000E+00
      -5     1     1     2     0   503 -1.492937231E+01  1.074594516E+00 -3.225750057E+01  3.587686934E+01  4.750000000E+00  0.00000E+00  9.000E+00
      21     1     1     2   511   501  4.393220885E+00  1.056121779E+01  4.476395884E+00  1.228323373E+01  1.032382731E-07  0.00000E+00  9.000E+00
#rwgt            1           9   3.6340645726781545E-004          12     1318359           0
</event>
<event>
      6   9999 -3.45752E-01  2.29227E+01 -1.00000E+00  1.55817E-01
      21    -1     0     0   512   502  0.000000000E+00  0.000000000E+00  5.876646176E+00  5.876646176E+00  0.000000000E+00  0.00000E+00  9.000E+00
      21    -1     0     0   502   503  0.000000000E+00  0.000000000E+00 -2.556589160E+03  2.556589160E+03  0.000000000E+00  0.00000E+00  9.000E+00
      25     1     1     2     0     0  4.626105879E+00  6.346336954E+00 -2.393225475E+03  2.396500471E+03  1.249986208E+02  0.00000E+00  9.000E+00
       5     1     1     2   501     0  6.858554392E+00  2.070317251E+00 -6.890026426E+00  1.101639442E+01  4.750000000E+00  0.00000E+00  9.000E+00
      -5     1     1     2     0   503  6.859555898E+00  5.328819006E+00 -8.262066480E+01  8.321169732E+01  4.750000000E+00  0.00000E+00  9.000E+00
      21     1     1     2   512   501 -1.834421617E+01 -1.374547321E+01 -6.797634760E+01  7.173724370E+01  2.132480600E-06  0.00000E+00  9.000E+00
#rwgt            1           9  -2.9314325230772722E-004          12     1321238           0
</event>
<event>
      6   9999  3.45752E-01  3.08276E+00 -1.00000E+00  2.73857E-01
      21    -1     0     0   511   502  0.000000000E+00  0.000000000E+00  2.026630898E+02  2.026630898E+02  0.000000000E+00  0.00000E+00  9.000E+00
      21    -1     0     0   502   503  0.000000000E+00  0.000000000E+00 -7.980342270E+02  7.980342270E+02  0.000000000E+00  0.00000E+00  9.000E+00
      25     1     1     2     0     0  5.630782962E-01 -2.043768692E-01 -7.620084277E+02  7.721922393E+02  1.249946070E+02  0.00000E+00  9.000E+00
       5     1     1     2   501     0  7.517826123E-01  4.961352079E-01 -4.770067531E-02  4.834883928E+00  4.750000000E+00  0.00000E+00  9.000E+00
      -5     1     1     2     0   503  1.500462347E+00  9.641722146E-01 -2.825443866E+01  2.870638987E+01  4.750000000E+00  0.00000E+00  9.000E+00
      21     1     1     2   511   501 -2.815323255E+00 -1.255930553E+00  1.949394299E+02  1.949638036E+02  5.394796609E-06  0.00000E+00  9.000E+00
#rwgt            1           9   9.8808752957511042E-002          12     1322620           0
</event>
<event>
      6   9999  3.45752E-01  6.87877E+00 -1.00000E+00  2.06110E-01
      21    -1     0     0   501   502  0.000000000E+00  0.000000000E+00  1.747371488E+01  1.747371488E+01  0.000000000E+00  0.00000E+00  9.000E+00
      21    -1     0     0   502   512  0.000000000E+00  0.000000000E+00 -2.503329486E+03  2.503329486E+03  0.000000000E+00  0.00000E+00  9.000E+00
      25     1     1     2     0     0  5.305532616E-01  3.062425700E+01 -5.908716132E+02  6.047250369E+02  1.249999212E+02  0.00000E+00  9.000E+00
       5     1     1     2   501     0  1.512737047E+00  1.038612968E+00  8.834388103E+00  1.019686243E+01  4.750000000E+00  0.00000E+00  9.000E+00
      -5     1     1     2     0   503 -6.756559094E+00 -3.667311244E+01 -3.440483245E+02  3.460959121E+02  4.750000000E+00  0.00000E+00  9.000E+00
      21     1     1     2   503   512  4.713268785E+00  5.010242479E+00 -1.559770221E+03  1.559785389E+03  2.157918644E-05  0.00000E+00  9.000E+00
#rwgt            1           9   1.0336837441145523E-004          12     1327453           0
</event>
<event>
      6   9999  3.45752E-01  1.88796E+01 -1.00000E+00  1.62145E-01
      21    -1     0     0   501   502  0.000000000E+00  0.000000000E+00  6.992645671E+02  6.992645671E+02  0.000000000E+00  0.00000E+00  9.000E+00
      21    -1     0     0   502   511  0.000000000E+00  0.000000000E+00 -1.535773462E+02  1.535773462E+02  0.000000000E+00  0.00000E+00  9.000E+00
      25     1     1     2     0     0  1.271105474E+01 -2.409961386E+01  1.192289543E+02  1.748780046E+02  1.249976426E+02  0.00000E+00  9.000E+00
       5     1     1     2   501     0  1.476588930E+01  2.578917465E+00  5.463159369E+02  5.465421738E+02  4.750000000E+00  0.00000E+00  9.000E+00
      -5     1     1     2     0   503 -1.454505204E+01  7.765529305E+00 -1.074921969E+02  1.088530976E+02  4.750000000E+00  0.00000E+00  9.000E+00
      21     1     1     2   503   511 -1.293189201E+01  1.375516709E+01 -1.236547348E+01  2.256863724E+01  2.384185791E-07  0.00000E+00  9.000E+00
#rwgt            1           9   3.4596580359043541E-003          12     1331161           0
</event>
<event>
      6   9999  3.45752E-01  6.73610E+00 -1.00000E+00  2.07289E-01
      21    -1     0     0   502   503  0.000000000E+00  0.000000000E+00  1.950009285E+01  1.950009285E+01  0.000000000E+00  0.00000E+00  9.000E+00
      21    -1     0     0   512   502  0.000000000E+00  0.000000000E+00 -9.779007320E+02  9.779007320E+02  0.000000000E+00  0.00000E+00  9.000E+00
      25     1     1     2     0     0 -9.013300266E+00  1.102482510E+01 -1.922431383E+02  2.297496635E+02  1.249987892E+02  0.00000E+00  9.000E+00
       5     1     1     2   501     0 -6.065759315E-01 -1.290569199E+01 -7.035483053E+02  7.036829578E+02  4.750000000E+00  0.00000E+00  9.000E+00
      -5     1     1     2     0   503  2.926260215E+00  2.636221815E+00 -2.429407951E+01  2.506546356E+01  4.750000000E+00  0.00000E+00  9.000E+00
      21     1     1     2   512   501  6.693615983E+00 -7.553549232E-01 -3.831511602E+01  3.890273990E+01  4.768371582E-07  0.00000E+00  9.000E+00
#rwgt            1           9   1.0969588807241009E-003          12     1334009           0
</event>
<event>
      6   9999 -3.45752E-01  6.19382E+00 -1.00000E+00  2.12153E-01
      21    -1     0     0   501   502  0.000000000E+00  0.000000000E+00  3.400944419E+01  3.400944419E+01  0.000000000E+00  0.00000E+00  9.000E+00
      21    -1     0     0   511   503  0.000000000E+00  0.000000000E+00 -1.341619275E+03  1.341619275E+03  0.000000000E+00  0.00000E+00  9.000E+00
      25     1     1     2     0     0 -9.251909290E+01 -7.337373821E+01 -7.235074758E+02  7.436608735E+02  1.249997567E+02  0.00000E+00  9.000E+00
       5     1     1     2   501     0  4.146879994E-01  1.412355186E+00  1.580548800E+01  1.656932902E+01  4.750000000E+00  0.00000E+00  9.000E+00
      -5     1     1     2     0   503  8.845029232E+01  6.696029941E+01 -3.926642188E+02  4.080623569E+02  4.750000000E+00  0.00000E+00  9.000E+00
      21     1     1     2   511   502  3.654112581E+00  5.001083618E+00 -2.072436242E+02  2.073361597E+02  0.000000000E+00  0.00000E+00  9.000E+00
#rwgt            1           9  -1.6747743031142626E-002          12     1338143           0
</event>
<event>
      6   9999  3.45752E-01  1.19627E+01 -1.00000E+00  1.79352E-01
      21    -1     0     0   501   502  0.000000000E+00  0.000000000E+00  9.640470039E+01  9.640470039E+01  0.000000000E+00  0.00000E+00  9.000E+00
      21    -1     0     0   512   503  0.000000000E+00  0.000000000E+00 -2.011187794E+02  2.011187794E+02  0.000000000E+00  0.00000E+00  9.000E+00
      25     1     1     2     0     0  1.906676500E+01  1.246193803E+01  6.624340740E+00  1.272286882E+02  1.249976631E+02  0.00000E+00  9.000E+00
       5     1     1     2   501     0 -1.170374762E+00 -5.766857966E-01  2.597110441E+01  2.643412771E+01  4.750000000E+00  0.00000E+00  9.000E+00
      -5     1     1     2     0   503 -1.530806056E+01 -2.356455026E+01 -1.157283138E+02  1.191856949E+02  4.750000000E+00  0.00000E+00  9.000E+00
      21     1     1     2   512   502 -2.588329683E+00  1.167929802E+01 -2.158121031E+01  2.467496893E+01  0.000000000E+00  0.00000E+00  9.000E+00
#rwgt            1           9   3.2309543720567045E-004          12     1343719           0
</event>
<event>
      6   9999  3.45752E-01  1.79996E+01 -1.00000E+00  1.63784E-01
      21    -1     0     0   511   502  0.000000000E+00  0.000000000E+00  5.100940370E+01  5.100940370E+01  0.000000000E+00  0.00000E+00  9.000E+00
      21    -1     0     0   502   503  0.000000000E+00  0.000000000E+00 -1.320022437E+03  1.320022437E+03  0.000000000E+00  0.00000E+00  9.000E+00
      25     1     1     2     0     0 -6.015627152E+01 -9.183152566E+01 -3.028617304E+02  3.455453469E+02  1.249982118E+02  0.00000E+00  9.000E+00
       5     1     1     2   501     0  9.428329265E+00 -4.680536107E+00  2.345123960E+01  2.614046575E+01  4.750000000E+00  0.00000E+00  9.000E+00
      -5     1     1     2     0   503  6.233057673E+01  8.275104470E+01 -9.522723775E+02  9.579029594E+02  4.750000000E+00  0.00000E+00  9.000E+00
      21     1     1     2   511   501 -1.160263447E+01  1.376101706E+01 -3.733016539E+01  4.144306896E+01  6.743495762E-07  0.00000E+00  9.000E+00
#rwgt            1           9   5.9153794072045590E-004          12     1346626           0
</event>
<event>
      6   9999 -3.45752E-01  1.40169E+01 -1.00000E+00  1.72963E-01
      21    -1     0     0   501   512  0.000000000E+00  0.000000000E+00  2.761525685E+02  2.761525685E+02  0.000000000E+00  0.00000E+00  9.000E+00
      21    -1     0     0   502   503  0.000000000E+00  0.000000000E+00 -1.694416899E+02  1.694416899E+02  0.000000000E+00  0.00000E+00  9.000E+00
      25     1     1     2     0     0  2.692021099E+01 -1.705733723E+01 -1.330735076E+02  1.853384149E+02  1.250044764E+02  0.00000E+00  9.000E+00
       5     1     1     2   501     0  4.687263542E+00  7.492955646E+00  7.849947322E+01  7.913813632E+01  4.750000000E+00  0.00000E+00  9.000E+00
      -5     1     1     2     0   503 -2.212250403E+01  1.988470702E+01  1.408672618E+01  3.325364810E+01  4.750000000E+00  0.00000E+00  9.000E+00
      21     1     1     2   502   512 -9.484970500E+00 -1.032032544E+01  1.471981868E+02  1.478640591E+02  2.697398305E-06  0.00000E+00  9.000E+00
#rwgt            1           9  -1.0931294911456483E-004          12     1349272           0
</event>
<event>
      6   9999 -3.45752E-01  8.17137E+00 -1.00000E+00  1.96932E-01
      21    -1     0     0   501   502  0.000000000E+00  0.000000000E+00  1.008125849E+01  1.008125849E+01  0.000000000E+00  0.00000E+00  9.000E+00
      21    -1     0     0   511   503  0.000000000E+00  0.000000000E+00 -1.019976721E+03  1.019976721E+03  0.000000000E+00  0.00000E+00  9.000E+00
      25     1     1     2     0     0 -6.713541572E+00 -3.004425561E+00 -9.501086372E+02  9.583241404E+02  1.249985492E+02  0.00000E+00  9.000E+00
       5     1     1     2   501     0  2.997974130E-01  9.397080246E-01  4.142182661E+00  6.379114896E+00  4.750000000E+00  0.00000E+00  9.000E+00
      -5     1     1     2     0   503 -1.746670159E+00  1.641718790E+00 -2.173399766E+01  2.237577376E+01  4.750000000E+00  0.00000E+00  9.000E+00
      21     1     1     2   511   502  8.160414318E+00  4.229987465E-01 -4.219501059E+01  4.297895076E+01  4.768371582E-07  0.00000E+00  9.000E+00
#rwgt            1           9  -2.3332049317759003E-005          12     1351795           0
</event>
<event>
      6   9999  3.45752E-01  8.01174E+01 -1.00000E+00  1.24673E-01
      21    -1     0     0   512   502  0.000000000E+00  0.000000000E+00  1.704432056E+02  1.704432056E+02  0.000000000E+00  0.00000E+00  9.000E+00
      21    -1     0     0   502   503  0.000000000E+00  0.000000000E+00 -6.997533317E+02  6.997533317E+02  0.000000000E+00  0.00000E+00  9.000E+00
      25     1     1     2     0     0 -2.221757622E+01 -1.911698190E+02 -4.177182106E+01  2.332594125E+02  1.250021924E+02  0.00000E+00  9.000E+00
       5     1     1     2   501     0  1.070088024E+01  1.011149571E+00  3.015973753E+01  3.236824878E+01  4.750000000E+00  0.00000E+00  9.000E+00
      -5     1     1     2     0   503  9.058448341E+01  1.772327121E+02 -4.721453046E+02  5.124068052E+02  4.750000000E+00  0.00000E+00  9.000E+00
      21     1     1     2   512   501 -7.906778744E+01  1.292595729E+01 -4.555273799E+01  9.216207095E+01  1.348699152E-06  0.00000E+00  9.000E+00
#rwgt            1           9   8.6603956428091336E-002          12     1354575           0
</event>
<event>
      6   9999  3.45752E-01  2.72165E+01 -1.00000E+00  1.50627E-01
      21    -1     0     0   501   502  0.000000000E+00  0.000000000E+00  4.590902794E+01  4.590902794E+01  0.000000000E+00  0.00000E+00  9.000E+00
      21    -1     0     0   511   503  0.000000000E+00  0.000000000E+00 -1.427183769E+03  1.427183769E+03  0.000000000E+00  0.00000E+00  9.000E+00
      25     1     1     2     0     0  2.413348636E+01  9.659783945E+01 -4.601621917E+02  4.871160105E+02  1.249767870E+02  0.00000E+00  9.000E+00
       5     1     1     2   501     0  1.320711542E+01  1.414113831E+00  2.380336345E+01  2.766930117E+01  4.750000000E+00  0.00000E+00  9.000E+00
      -5     1     1     2     0   503 -1.040714257E+01 -9.409697594E+01 -3.453024190E+02  3.580766295E+02  4.750000000E+00  0.00000E+00  9.000E+00
      21     1     1     2   511   502 -2.693345921E+01 -3.914977344E+00 -5.996134938E+02  6.002308558E+02  7.629394531E-06  0.00000E+00  9.000E+00
#rwgt            1           9   1.6626884728775517E-002          12     1355352           0
</event>
<event>
      6   9999 -3.45752E-01  9.97312E+00 -1.00000E+00  1.87317E-01
      21    -1     0     0   501   512  0.000000000E+00  0.000000000E+00  1.042081557E+01  1.042081557E+01  0.000000000E+00  0.00000E+00  9.000E+00
      21    -1     0     0   502   503  0.000000000E+00  0.000000000E+00 -1.161591727E+03  1.161591727E+03  0.000000000E+00  0.00000E+00  9.000E+00
      25     1     1     2     0     0 -1.402390933E+01  1.621932569E+00 -1.099573179E+03  1.106747235E+03  1.250158549E+02  0.00000E+00  9.000E+00
       5     1     1     2   501     0  1.254417292E+00 -7.395224480E-01  1.678140212E+00  5.243959455E+00  4.750000000E+00  0.00000E+00  9.000E+00
      -5     1     1     2     0   503  1.102291997E+01 -1.070140233E+01 -4.197096123E+01  4.494606616E+01  4.750000000E+00  0.00000E+00  9.000E+00
      21     1     1     2   502   512  1.746572066E+00  9.818992211E+00 -1.130491100E+01  1.507528224E+01  4.298152060E-07  0.00000E+00  9.000E+00
#rwgt            1           9  -3.0197708975985100E-005          12     1357484           0
</event>
<event>
      6   9999  3.45752E-01  3.04944E+00 -1.00000E+00  2.75068E-01
      21    -1     0     0   511   502  0.000000000E+00  0.000000000E+00  1.169238779E+01  1.169238779E+01  0.000000000E+00  0.00000E+00  9.000E+00
      21    -1     0     0   502   503  0.000000000E+00  0.000000000E+00 -9.360757512E+02  9.360757512E+02  0.000000000E+00  0.00000E+00  9.000E+00
      25     1     1     2     0     0  2.795115017E+01 -1.417812351E+01 -4.445767178E+02  4.628693182E+02  1.249690432E+02  0.00000E+00  9.000E+00
       5     1     1     2   501     0  2.732096245E-01  4.000829126E-01 -4.387849239E+00  6.484630350E+00  4.750000000E+00  0.00000E+00  9.000E+00
      -5     1     1     2     0   503 -2.522901771E+01  1.434986256E+01 -4.742301791E+02  4.751412917E+02  4.750000000E+00  0.00000E+00  9.000E+00
      21     1     1     2   511   501 -2.995342091E+00 -5.718219670E-01 -1.188617296E+00  3.272898667E+00  1.021572143E-07  0.00000E+00  9.000E+00
#rwgt            1           9   2.4292124917189907E-004          12     1360557           0
</event>
<event>
      6   9999 -3.45752E-01  1.27699E+01 -1.00000E+00  1.76661E-01
      21    -1     0     0   501   502  0.000000000E+00  0.000000000E+00  6.335116032E+01  6.335116032E+01  0.000000000E+00  0.00000E+00  9.000E+00
      21    -1     0     0   502   512  0.000000000E+00  0.000000000E+00 -1.890361995E+03  1.890361995E+03  0.000000000E+00  0.00000E+00  9.000E+00
      25     1     1     2     0     0 -1.705196121E+02 -3.267794106E+01 -5.416281971E+02  5.823498949E+02  1.250020411E+02  0.00000E+00  9.000E+00
       5     1     1     2   501     0 -6.878406515E-01 -2.127772585E+00  3.265193826E+01  3.307131859E+01  4.750000000E+00  0.00000E+00  9.000E+00
      -5     1     1     2     0   503  1.828785631E+02  3.998796396E+01 -8.632035499E+02  8.832816862E+02  4.750000000E+00  0.00000E+00  9.000E+00
      21     1     1     2   503   512 -1.167111036E+01 -5.182250314E+00 -4.548310259E+02  4.550102556E+02  5.394796609E-06  0.00000E+00  9.000E+00
#rwgt            1           9  -1.0470462935712081E-002          12     1366032           0
</event>
<event>
      6   9999  3.45752E-01  1.32556E+01 -1.00000E+00  1.75160E-01
      21    -1     0     0   501   502  0.000000000E+00  0.000000000E+00  8.544134916E+01  8.544134916E+01  0.000000000E+00  0.00000E+00  9.000E+00
      21    -1     0     0   502   511  0.000000000E+00  0.000000000E+00 -1.002648998E+03  1.002648998E+03  0.000000000E+00  0.00000E+00  9.000E+00
      25     1     1     2     0     0 -4.592810217E+01  1.116498986E+02 -9.835575771E+01  1.996830275E+02  1.249974638E+02  0.00000E+00  9.000E+00
       5     1     1     2   501     0 -1.699866384E+00  1.565613374E+00  2.965268251E+01  3.011950815E+01  4.750000000E+00  0.00000E+00  9.000E+00
      -5     1     1     2     0   503  4.080489196E+01 -1.018507619E+02 -6.393660724E+02  6.487296463E+02  4.750000000E+00  0.00000E+00  9.000E+00
      21     1     1     2   503   511  6.823076598E+00 -1.136475009E+01 -2.091385009E+02  2.095581649E+02  2.697398305E-06  0.00000E+00  9.000E+00
#rwgt            1           9   83.340523356404191               12     1369585           0
</event>
<event>
      6   9999  3.45752E-01  1.21880E+01 -1.00000E+00  1.78574E-01
      21    -1     0     0   512   503  0.000000000E+00  0.000000000E+00  1.064245032E+01  1.064245032E+01  0.000000000E+00  0.00000E+00  9.000E+00
      21    -1     0     0   501   502  0.000000000E+00  0.000000000E+00 -7.259223005E+02  7.259223005E+02  0.000000000E+00  0.00000E+00  9.000E+00
      25     1     1     2     0     0 -2.854092201E+00  2.559080717E+00 -6.397748880E+02  6.518836929E+02  1.250029885E+02  0.00000E+00  9.000E+00
       5     1     1     2   501     0 -1.354504650E+00 -1.390040736E+00 -1.796049628E+00  5.436468556E+00  4.750000000E+00  0.00000E+00  9.000E+00
      -5     1     1     2     0   503 -6.994853895E+00 -5.968119807E+00 -6.006317240E+01  6.094828639E+01  4.750000000E+00  0.00000E+00  9.000E+00
      21     1     1     2   512   502  1.120345075E+01  4.799079826E+00 -1.364574020E+01  1.829630294E+01  0.000000000E+00  0.00000E+00  9.000E+00
#rwgt            1           9   1.0678931011644390E-004          12     1372812           0
</event>
<event>
      6   9999  3.45752E-01  1.08889E+01 -1.00000E+00  1.83380E-01
      21    -1     0     0   501   502  0.000000000E+00  0.000000000E+00  8.945076505E+00  8.945076505E+00  0.000000000E+00  0.00000E+00  9.000E+00
      21    -1     0     0   502   511  0.000000000E+00  0.000000000E+00 -1.611095574E+03  1.611095574E+03  0.000000000E+00  0.00000E+00  9.000E+00
      25     1     1     2     0     0 -1.049170622E+00 -9.005941979E+00 -7.475873249E+02  7.580201483E+02  1.250021163E+02  0.00000E+00  9.000E+00
       5     1     1     2   501     0  4.362532086E-01 -4.017686982E-01  3.086287256E-01  4.796820472E+00  4.750000000E+00  0.00000E+00  9.000E+00
      -5     1     1     2     0   503 -1.543314041E-01 -1.454102239E+00 -4.270542929E+00  6.552729845E+00  4.750000000E+00  0.00000E+00  9.000E+00
      21     1     1     2   503   511  7.672488175E-01  1.086181292E+01 -8.506012587E+02  8.506709523E+02  1.078959322E-05  0.00000E+00  9.000E+00
#rwgt            1           9   6.8368148141048700E-004          12     1374832           0
</event>
<event>
      6   9999  3.45752E-01  2.40447E+01 -1.00000E+00  1.54336E-01
      21    -1     0     0   501   502  0.000000000E+00  0.000000000E+00  3.399832389E+01  3.399832389E+01  0.000000000E+00  0.00000E+00  9.000E+00
      21    -1     0     0   502   512  0.000000000E+00  0.000000000E+00 -1.332504531E+03  1.332504531E+03  0.000000000E+00  0.00000E+00  9.000E+00
      25     1     1     2     0     0  4.412458246E+01  3.011145034E+01 -1.068350690E+03  1.076963823E+03  1.249968124E+02  0.00000E+00  9.000E+00
       5     1     1     2   501     0 -6.584091810E-01  3.735180122E+00  2.578578169E+01  2.649252934E+01  4.750000000E+00  0.00000E+00  9.000E+00
      -5     1     1     2     0   503 -2.616309033E+01 -1.715076282E+01 -9.061204127E+01  9.597791665E+01  4.750000000E+00  0.00000E+00  9.000E+00
      21     1     1     2   503   512 -1.730308295E+01 -1.669586764E+01 -1.653292581E+02  1.670685855E+02  3.303624740E-06  0.00000E+00  9.000E+00
#rwgt            1           9   1.0971723212554821E-004          12     1377020           0
</event>
<event>
      6   9999  3.45752E-01  5.81558E+00 -1.00000E+00  2.15964E-01
      21    -1     0     0   501   511  0.000000000E+00  0.000000000E+00  9.012909590E+01  9.012909590E+01  0.000000000E+00  0.00000E+00  9.000E+00
      21    -1     0     0   502   503  0.000000000E+00  0.000000000E+00 -1.607140413E+02  1.607140413E+02  0.000000000E+00  0.00000E+00  9.000E+00
      25     1     1     2     0     0  1.623263206E+01 -2.559294141E+01 -8.434151141E+01  1.538101118E+02  1.250022518E+02  0.00000E+00  9.000E+00
       5     1     1     2   501     0  1.952139074E+00 -4.153380659E+00  4.455796182E+01  4.504482078E+01  4.750000000E+00  0.00000E+00  9.000E+00
      -5     1     1     2     0   503 -1.409165779E+01  2.561504889E+01 -3.420761284E+01  4.524852290E+01  4.750000000E+00  0.00000E+00  9.000E+00
      21     1     1     2   502   511 -4.093113342E+00  4.131273178E+00  3.406217053E+00  6.739681707E+00  5.960464478E-08  0.00000E+00  9.000E+00
#rwgt            1           9   3.2607381340196064E-002          12     1379266           0
</event>
<event>
      6   9999 -3.45752E-01  4.24586E+00 -1.00000E+00  2.42607E-01
      21    -1     0     0   501   502  0.000000000E+00  0.000000000E+00  4.567810305E+00  4.567810305E+00  0.000000000E+00  0.00000E+00  9.000E+00
      21    -1     0     0   512   503  0.000000000E+00  0.000000000E+00 -3.477968322E+03  3.477968322E+03  0.000000000E+00  0.00000E+00  9.000E+00
      25     1     1     2     0     0 -4.989715675E+01  6.575690497E+00 -1.847565986E+03  1.852473599E+03  1.250015891E+02  0.00000E+00  9.000E+00
       5     1     1     2   501     0 -5.731550291E-01  1.407572928E+00 -2.259826246E+00  5.475315780E+00  4.750000000E+00  0.00000E+00  9.000E+00
      -5     1     1     2     0   503  5.144027627E+01 -1.211684268E+01 -1.486118246E+03  1.487065205E+03  4.750000000E+00  0.00000E+00  9.000E+00
      21     1     1     2   512   502 -9.699644947E-01  4.133579254E+00 -1.374564536E+02  1.375220126E+02  1.907348633E-06  0.00000E+00  9.000E+00
#rwgt            1           9  -1.9690865102003521E-003          12     1383837           0
</event>
<event>
      6   9999  3.45752E-01  1.00496E+01 -1.00000E+00  1.86968E-01
      21    -1     0     0   501   511  0.000000000E+00  0.000000000E+00  1.508364691E+01  1.508364691E+01  0.000000000E+00  0.00000E+00  9.000E+00
      21    -1     0     0   502   503  0.000000000E+00  0.000000000E+00 -9.260399847E+02  9.260399847E+02  0.000000000E+00  0.00000E+00  9.000E+00
      25     1     1     2     0     0 -2.371455776E+01 -6.000638893E+00 -3.352314526E+02  3.586141190E+02  1.250022864E+02  0.00000E+00  9.000E+00
       5     1     1     2   501     0 -7.823113409E-01 -9.629453727E-01 -5.111203750E-01  4.935890888E+00  4.750000000E+00  0.00000E+00  9.000E+00
      -5     1     1     2     0   503  1.446801249E+01  6.318648259E+00 -5.523823834E+02  5.526283640E+02  4.750000000E+00  0.00000E+00  9.000E+00
      21     1     1     2   502   511  1.002885661E+01  6.449360058E-01 -2.283138146E+01  2.494525780E+01  3.371747881E-07  0.00000E+00  9.000E+00
#rwgt            1           9   1.1210541933057581E-003          12     1388821           0
</event>
<event>
      6   9999  3.45752E-01  4.70159E+00 -1.00000E+00  2.34166E-01
      21    -1     0     0   501   502  0.000000000E+00  0.000000000E+00  1.708257604E+01  1.708257604E+01  0.000000000E+00  0.00000E+00  9.000E+00
      21    -1     0     0   502   512  0.000000000E+00  0.000000000E+00 -4.892132394E+02  4.892132394E+02  0.000000000E+00  0.00000E+00  9.000E+00
      25     1     1     2     0     0 -8.222383674E+00 -2.661656794E+00 -2.697364126E+02  2.974172501E+02  1.249983855E+02  0.00000E+00  9.000E+00
       5     1     1     2   501     0 -1.468071047E-01 -8.853596317E-01  7.531777253E-01  4.892360441E+00  4.750000000E+00  0.00000E+00  9.000E+00
      -5     1     1     2     0   503  5.995979167E+00 -5.116571172E-01 -1.872805562E+02  1.874374104E+02  4.750000000E+00  0.00000E+00  9.000E+00
      21     1     1     2   503   512  2.373211612E+00  4.058673543E+00 -1.586687224E+01  1.654879449E+01  1.685873940E-07  0.00000E+00  9.000E+00
#rwgt            1           9   4.4119953789311089E-003          12     1391164           0
</event>
<event>
      6   9999  3.45752E-01  2.31475E+00 -1.00000E+00  3.10119E-01
      21    -1     0     0   501   502  0.000000000E+00  0.000000000E+00  1.376574953E+02  1.376574953E+02  0.000000000E+00  0.00000E+00  9.000E+00
      21    -1     0     0   502   511  0.000000000E+00  0.000000000E+00 -6.891516399E+01  6.891516399E+01  0.000000000E+00  0.00000E+00  9.000E+00
      25     1     1     2     0     0  7.887289888E-01 -1.333323487E+01  3.502514853E+01  1.304578408E+02  1.249563522E+02  0.00000E+00  9.000E+00
       5     1     1     2   501     0  1.472242759E+00  3.282003998E-01  5.156770220E+01  5.180796873E+01  4.750000000E+00  0.00000E+00  9.000E+00
      -5     1     1     2     0   503 -2.930213495E+00  1.078913776E+01 -8.891605481E+00  1.505373019E+01  4.750000000E+00  0.00000E+00  9.000E+00
      21     1     1     2   503   511  6.692417467E-01  2.215896711E+00 -8.958913911E+00  9.253119540E+00  0.000000000E+00  0.00000E+00  9.000E+00
#rwgt            1           9   1.5972100711985962E-004          12     1395336           0
</event>
<event>
      6   9999  3.45752E-01  6.90049E+00 -1.00000E+00  2.05934E-01
      21    -1     0     0   502   503  0.000000000E+00  0.000000000E+00  7.756147637E+01  7.756147637E+01  0.000000000E+00  0.00000E+00  9.000E+00
      21    -1     0     0   512   502  0.000000000E+00  0.000000000E+00 -6.610229717E+02  6.610229717E+02  0.000000000E+00  0.00000E+00  9.000E+00
      25     1     1     2     0     0 -3.167618451E+01  4.613450126E+01 -1.428993594E+01  1.376983477E+02  1.249994393E+02  0.00000E+00  9.000E+00
       5     1     1     2   501     0  8.232005175E+00 -4.193095755E+01 -3.259234667E+01  5.395178099E+01  4.750000000E+00  0.00000E+00  9.000E+00
      -5     1     1     2     0   503  1.910304246E+01 -9.567433359E+00 -1.807829039E+01  2.838748132E+01  4.750000000E+00  0.00000E+00  9.000E+00
      21     1     1     2   512   501  4.341136879E+00  5.363889655E+00 -5.185009223E+02  5.185468380E+02  7.629394531E-06  0.00000E+00  9.000E+00
#rwgt            1           9   6.3013543265362938E-004          12     1401841           0
</event>
<event>
      6   9999  3.45752E-01  6.00125E+01 -1.00000E+00  1.30679E-01
      21    -1     0     0   501   511  0.000000000E+00  0.000000000E+00  1.438074872E+02  1.438074872E+02  0.000000000E+00  0.00000E+00  9.000E+00
      21    -1     0     0   502   503  0.000000000E+00  0.000000000E+00 -9.222240048E+02  9.222240048E+02  0.000000000E+00  0.00000E+00  9.000E+00
      25     1     1     2     0     0  2.276010557E+01 -2.371831579E+01 -6.768027729E+02  6.890345775E+02  1.250042984E+02  0.00000E+00  9.000E+00
       5     1     1     2   501     0  1.891157165E+01 -1.220911537E+01 -2.430201776E+00  2.313392360E+01  4.750000000E+00  0.00000E+00  9.000E+00
      -5     1     1     2     0   503  5.410440208E+00 -1.285059864E+00 -2.193883053E+02  2.195101711E+02  4.750000000E+00  0.00000E+00  9.000E+00
      21     1     1     2   502   511 -4.708211744E+01  3.721249103E+01  1.202047624E+02  1.343528198E+02  3.568322551E-06  0.00000E+00  9.000E+00
#rwgt            1           9   3.4786741700248360E-005          12     1405228           0
</event>
<event>
      6   9999  3.45752E-01  7.11365E+00 -1.00000E+00  2.04251E-01
      21    -1     0     0   501   512  0.000000000E+00  0.000000000E+00  1.287387190E+01  1.287387190E+01  0.000000000E+00  0.00000E+00  9.000E+00
      21    -1     0     0   502   503  0.000000000E+00  0.000000000E+00 -2.050042323E+03  2.050042323E+03  0.000000000E+00  0.00000E+00  9.000E+00
      25     1     1     2     0     0 -7.087479212E+01  4.581102883E+01 -1.303146660E+03  1.311849204E+03  1.250409135E+02  0.00000E+00  9.000E+00
       5     1     1     2   501     0  1.635507300E+00 -3.858643935E+00  3.957779137E+00  7.469306048E+00  4.750000000E+00  0.00000E+00  9.000E+00
      -5     1     1     2     0   503  6.464569864E+01 -4.738404663E+01 -7.161795955E+02  7.206664206E+02  4.750000000E+00  0.00000E+00  9.000E+00
      21     1     1     2   502   512  4.593586177E+00  5.431661731E+00 -2.179997465E+01  2.293126420E+01  5.840038640E-07  0.00000E+00  9.000E+00
#rwgt            1           9   8.8278532813046498E-003          12     1406661           0
</event>
<event>
      6   9999  3.45752E-01  2.73478E+00 -1.00000E+00  2.87866E-01
      21    -1     0     0   501   502  0.000000000E+00  0.000000000E+00  3.715841762E+01  3.715841762E+01  0.000000000E+00  0.00000E+00  9.000E+00
      21    -1     0     0   502   511  0.000000000E+00  0.000000000E+00 -1.532011185E+03  1.532011185E+03  0.000000000E+00  0.00000E+00  9.000E+00
      25     1     1     2     0     0 -4.418204195E+00  1.539648483E+00 -1.178217023E+03  1.184838743E+03  1.250024097E+02  0.00000E+00  9.000E+00
       5     1     1     2   501     0  5.582065366E+00 -4.855251100E+00  3.302147255E+01  3.417181684E+01  4.750000000E+00  0.00000E+00  9.000E+00
      -5     1     1     2     0   503 -4.017371367E-01  6.891669978E-01 -2.340953790E+01  2.389990185E+01  4.750000000E+00  0.00000E+00  9.000E+00
      21     1     1     2   503   511 -7.621240341E-01  2.626435620E+00 -3.262476786E+02  3.262591406E+02  6.607249480E-06  0.00000E+00  9.000E+00
#rwgt            1           9   6.0901908077177634E-004          12     1410597           0
</event>
<event>
      6   9999  3.45752E-01  1.05079E+01 -1.00000E+00  1.84955E-01
      21    -1     0     0   501   512  0.000000000E+00  0.000000000E+00  3.932187987E+01  3.932187987E+01  0.000000000E+00  0.00000E+00  9.000E+00
      21    -1     0     0   502   503  0.000000000E+00  0.000000000E+00 -2.019161376E+02  2.019161376E+02  0.000000000E+00  0.00000E+00  9.000E+00
      25     1     1     2     0     0 -9.518409485E+00 -4.867518245E+00 -1.691168408E+02  2.105696686E+02  1.249991465E+02  0.00000E+00  9.000E+00
       5     1     1     2   501     0  2.378849551E-01 -1.883605815E+00  9.020332938E+00  1.036983445E+01  4.750000000E+00  0.00000E+00  9.000E+00
      -5     1     1     2     0   503  7.551423611E+00 -3.613534208E+00 -8.565232978E-01  9.663216865E+00  4.750000000E+00  0.00000E+00  9.000E+00
      21     1     1     2   502   512  1.729100920E+00  1.036465827E+01 -1.641226612E+00  1.063529763E+01  1.475139698E-07  0.00000E+00  9.000E+00
#rwgt            1           9   4.5124133771682538E-004          12     1418915           0
</event>
<event>
      6   9999 -3.45752E-01  8.62844E+00 -1.00000E+00  1.94205E-01
      21    -1     0     0   501   511  0.000000000E+00  0.000000000E+00  4.528229484E+01  4.528229484E+01  0.000000000E+00  0.00000E+00  9.000E+00
      21    -1     0     0   502   503  0.000000000E+00  0.000000000E+00 -8.065072535E+02  8.065072535E+02  0.000000000E+00  0.00000E+00  9.000E+00
      25     1     1     2     0     0 -1.276821246E+01 -4.159131624E+01 -5.964021284E+02  6.109114825E+02  1.249979032E+02  0.00000E+00  9.000E+00
       5     1     1     2   501     0 -4.461056865E+00 -4.888792749E+00 -1.335306446E+01  1.564187180E+01  4.750000000E+00  0.00000E+00  9.000E+00
      -5     1     1     2     0   503  1.283390440E+01  3.905510263E+01 -1.855355038E+02  1.900947022E+02  4.750000000E+00  0.00000E+00  9.000E+00
      21     1     1     2   502   511  4.395364931E+00  7.425006356E+00  3.406573795E+01  3.514149192E+01  9.536743164E-07  0.00000E+00  9.000E+00
#rwgt            1           9 -0.86844374814581149               12     1421567           0
</event>
<event>
      6   9999  3.45752E-01  9.34481E+00 -1.00000E+00  1.90348E-01
      21    -1     0     0   501   502  0.000000000E+00  0.000000000E+00  2.766850674E+01  2.766850674E+01  0.000000000E+00  0.00000E+00  9.000E+00
      21    -1     0     0   502   512  0.000000000E+00  0.000000000E+00 -8.038648746E+02  8.038648746E+02  0.000000000E+00  0.00000E+00  9.000E+00
      25     1     1     2     0     0 -8.484197729E+00  3.185727612E+01 -3.783380270E+02  3.998597532E+02  1.251450835E+02  0.00000E+00  9.000E+00
       5     1     1     2   501     0 -4.444395561E+00  4.209722356E-01  1.489163784E+01  1.625586808E+01  4.750000000E+00  0.00000E+00  9.000E+00
      -5     1     1     2     0   503  7.992497645E+00 -2.434348230E+01 -1.339472864E+02  1.364585035E+02  4.750000000E+00  0.00000E+00  9.000E+00
      21     1     1     2   503   512  4.936095645E+00 -7.934766053E+00 -2.788026923E+02  2.789592565E+02  6.607249480E-06  0.00000E+00  9.000E+00
#rwgt            1           9   1.5510492868259097E-003          12     1424413           0
</event>
<event>
      6   9999  3.45752E-01  1.42754E+01 -1.00000E+00  1.72256E-01
      21    -1     0     0   502   511  0.000000000E+00  0.000000000E+00  1.744824814E+02  1.744824814E+02  0.000000000E+00  0.00000E+00  9.000E+00
      21    -1     0     0   501   502  0.000000000E+00  0.000000000E+00 -2.129395963E+02  2.129395963E+02  0.000000000E+00  0.00000E+00  9.000E+00
      25     1     1     2     0     0 -2.632107440E+01  7.606607401E-01 -1.774971383E+02  2.186859306E+02  1.249996984E+02  0.00000E+00  9.000E+00
       5     1     1     2   501     0 -4.268030981E-01  3.670604533E-02 -3.075950341E+00  5.675163321E+00  4.750000000E+00  0.00000E+00  9.000E+00
      -5     1     1     2     0   503  1.301182824E+01  3.089448373E+00 -5.155337484E+00  1.509941622E+01  4.750000000E+00  0.00000E+00  9.000E+00
      21     1     1     2   503   511  1.373604926E+01 -3.886815158E+00  1.472713112E+02  1.479615676E+02  1.907348633E-06  0.00000E+00  9.000E+00
#rwgt            1           9   1.2095879544592595E-004          12     1427150           0
</event>
<event>
      6   9999  3.45752E-01  1.36998E+01 -1.00000E+00  1.73856E-01
      21    -1     0     0   501   512  0.000000000E+00  0.000000000E+00  1.091399110E+01  1.091399110E+01  0.000000000E+00  0.00000E+00  9.000E+00
      21    -1     0     0   502   503  0.000000000E+00  0.000000000E+00 -7.131869741E+02  7.131869741E+02  0.000000000E+00  0.00000E+00  9.000E+00
      25     1     1     2     0     0  5.939039176E+00 -1.013605054E+01 -5.852017039E+02  5.985183135E+02  1.250005027E+02  0.00000E+00  9.000E+00
       5     1     1     2   501     0  1.370360111E+00 -3.231409673E+00 -6.326796828E+01  6.354304215E+01  4.750000000E+00  0.00000E+00  9.000E+00
      -5     1     1     2     0   503 -1.892479765E+00  7.840653784E-01 -4.596658284E+01  4.625673438E+01  4.750000000E+00  0.00000E+00  9.000E+00
      21     1     1     2   502   512 -5.416919522E+00  1.258339484E+01 -7.836728007E+00  1.578287517E+01  4.842304232E-07  0.00000E+00  9.000E+00
#rwgt            1           9   1.3960232847245398E-002          12     1429234           0
</event>
<event>
      6   9999 -3.45752E-01  2.92102E+01 -1.00000E+00  1.48591E-01
      21    -1     0     0   511   503  0.000000000E+00  0.000000000E+00  2.174177020E+01  2.174177020E+01  0.000000000E+00  0.00000E+00  9.000E+00
      21    -1     0     0   501   502  0.000000000E+00  0.000000000E+00 -7.356802084E+02  7.356802084E+02  0.000000000E+00  0.00000E+00  9.000E+00
      25     1     1     2     0     0  1.355515470E+00  1.898190989E+01 -6.222390306E+02  6.349558128E+02  1.250012911E+02  0.00000E+00  9.000E+00
       5     1     1     2   501     0  2.473700768E+00  8.595141349E-01 -5.777441944E+01  5.802847579E+01  4.750000000E+00  0.00000E+00  9.000E+00
      -5     1     1     2     0   503 -3.035689824E+00  9.357970172E+00 -3.348727025E+01  3.522423580E+01  4.750000000E+00  0.00000E+00  9.000E+00
      21     1     1     2   511   502 -7.935264133E-01 -2.919939420E+01 -4.377179030E-01  2.921345414E+01  5.216204633E-07  0.00000E+00  9.000E+00
#rwgt            1           9  -5.2396731652230453E-004          12     1431159           0
</event>
<event>
      6   9999  3.45752E-01  1.54424E+00 -1.00000E+00  3.83424E-01
      21    -1     0     0   501   502  0.000000000E+00  0.000000000E+00  4.602338780E+00  4.602338780E+00  0.000000000E+00  0.00000E+00  9.000E+00
      21    -1     0     0   502   512  0.000000000E+00  0.000000000E+00 -1.913664164E+03  1.913664164E+03  0.000000000E+00  0.00000E+00  9.000E+00
      25     1     1     2     0     0  1.391234440E+01 -1.305440991E+01 -1.456463522E+03  1.461942202E+03  1.250001571E+02  0.00000E+00  9.000E+00
       5     1     1     2   501     0 -9.268857579E-01  1.065723439E+00 -2.326279694E+00  5.474391370E+00  4.750000000E+00  0.00000E+00  9.000E+00
      -5     1     1     2     0   503 -1.148840325E+01  1.236751856E+01 -2.688316981E+02  2.694030128E+02  4.750000000E+00  0.00000E+00  9.000E+00
      21     1     1     2   503   512 -1.497055396E+00 -3.788320856E-01 -1.814403255E+02  1.814468970E+02  0.000000000E+00  0.00000E+00  9.000E+00
#rwgt            1           9   2.5532195723811845E-004          12     1432091           0
</event>
<event>
      6   9999 -3.45752E-01  1.00149E+01 -1.00000E+00  1.87126E-01
      21    -1     0     0   511   502  0.000000000E+00  0.000000000E+00  6.721067980E+02  6.721067980E+02  0.000000000E+00  0.00000E+00  9.000E+00
      21    -1     0     0   502   503  0.000000000E+00  0.000000000E+00 -6.632237368E+01  6.632237368E+01  0.000000000E+00  0.00000E+00  9.000E+00
      25     1     1     2     0     0 -1.783703641E+01  4.554069217E+01  3.284300581E+01  1.381880984E+02  1.250006920E+02  0.00000E+00  9.000E+00
       5     1     1     2   501     0 -9.656640572E-01  6.533309705E-01  3.140692940E+01  3.178548510E+01  4.750000000E+00  0.00000E+00  9.000E+00
      -5     1     1     2     0   503  1.331268975E+01 -3.781800574E+01  1.696862525E+01  4.379413214E+01  4.750000000E+00  0.00000E+00  9.000E+00
      21     1     1     2   511   501  5.490010717E+00 -8.376017396E+00  5.245658639E+02  5.246614560E+02  7.629394531E-06  0.00000E+00  9.000E+00
#rwgt            1           9  -4.9303764952536491E-003          12     1441314           0
</event>
<event>
      6   9999  3.45752E-01  8.36741E+00 -1.00000E+00  1.95734E-01
      21    -1     0     0   501   502  0.000000000E+00  0.000000000E+00  1.450380140E+01  1.450380140E+01  0.000000000E+00  0.00000E+00  9.000E+00
      21    -1     0     0   512   503  0.000000000E+00  0.000000000E+00 -1.036749452E+03  1.036749452E+03  0.000000000E+00  0.00000E+00  9.000E+00
      25     1     1     2     0     0 -7.775501679E+00 -4.627908923E+01 -4.700678837E+02  4.886642851E+02  1.250070228E+02  0.00000E+00  9.000E+00
       5     1     1     2   501     0 -1.435577004E+00 -1.321466534E+00  1.988936875E+00  5.506861632E+00  4.750000000E+00  0.00000E+00  9.000E+00
      -5     1     1     2     0   503  9.397080886E-01  4.633645488E+01 -4.030006037E+02  4.056846056E+02  4.750000000E+00  0.00000E+00  9.000E+00
      21     1     1     2   512   502  8.271370595E+00  1.264100886E+00 -1.511661002E+02  1.513975012E+02  1.907348633E-06  0.00000E+00  9.000E+00
#rwgt            1           9   2.4052298133267272E-002          12     1443945           0
</event>
<event>
      6   9999  3.45752E-01  5.33796E+00 -1.00000E+00  2.21384E-01
      21    -1     0     0   501   502  0.000000000E+00  0.000000000E+00  8.258506767E+00  8.258506767E+00  0.000000000E+00  0.00000E+00  9.000E+00
      21    -1     0     0   511   503  0.000000000E+00  0.000000000E+00 -9.652060462E+02  9.652060462E+02  0.000000000E+00  0.00000E+00  9.000E+00
      25     1     1     2     0     0  5.684144758E+00  5.734131666E+00 -6.667412360E+02  6.784065675E+02  1.250056208E+02  0.00000E+00  9.000E+00
       5     1     1     2   501     0  1.148200804E+00  8.366340471E-02 -3.941704645E-01  4.903390154E+00  4.750000000E+00  0.00000E+00  9.000E+00
      -5     1     1     2     0   503 -2.652427205E+00 -2.497835421E+00 -6.399704457E+01  6.427642465E+01  4.750000000E+00  0.00000E+00  9.000E+00
      21     1     1     2   511   502 -4.179918357E+00 -3.319959649E+00 -2.258150884E+02  2.258781707E+02  0.000000000E+00  0.00000E+00  9.000E+00
#rwgt            1           9   4.4955559298548962E-003          12     1446880           0
</event>
<event>
      6   9999  3.45752E-01  1.78504E+01 -1.00000E+00  1.64074E-01
       2    -1     0     0   501     0  0.000000000E+00  0.000000000E+00  8.724358701E+02  8.724358701E+02  0.000000000E+00  0.00000E+00  9.000E+00
      21    -1     0     0   502   503  0.000000000E+00  0.000000000E+00 -9.086590535E+02  9.086590535E+02  0.000000000E+00  0.00000E+00  9.000E+00
      25     1     1     2     0     0  1.793264250E+01  1.669390352E+01 -8.738236506E+02  8.830588011E+02  1.249992310E+02  0.00000E+00  9.000E+00
       5     1     1     2   501     0 -1.410359889E+01 -2.606884480E+01  2.933333097E+01  4.197026300E+01  4.750000000E+00  0.00000E+00  9.000E+00
      -5     1     1     2     0   503  3.115244585E+00 -7.069265375E+00 -2.293978193E+01  2.466729326E+01  4.750000000E+00  0.00000E+00  9.000E+00
       2     1     1     2   502     0 -6.944288199E+00  1.644420665E+01  8.312069182E+02  8.313985662E+02  1.078959322E-05  0.00000E+00  9.000E+00
#rwgt            1           9   5.6241908179842908E-003          12     1450411           0
</event>
<event>
      6   9999  3.45752E-01  1.38793E+01 -1.00000E+00  1.73347E-01
      21    -1     0     0   501   502  0.000000000E+00  0.000000000E+00  1.076872243E+03  1.076872243E+03  0.000000000E+00  0.00000E+00  9.000E+00
      21    -1     0     0   502   511  0.000000000E+00  0.000000000E+00 -9.525438818E+02  9.525438818E+02  0.000000000E+00  0.00000E+00  9.000E+00
      25     1     1     2     0     0  1.411891715E+01 -3.144119694E+01  2.793066336E+02  3.079250218E+02  1.249709198E+02  0.00000E+00  9.000E+00
       5     1     1     2   501     0 -1.738842152E+00  1.879917147E-02  4.559392551E+02  4.559673133E+02  4.750000000E+00  0.00000E+00  9.000E+00
      -5     1     1     2     0   503 -2.467878810E+01  2.498989583E+01  3.262921666E+02  3.282113313E+02  4.750000000E+00  0.00000E+00  9.000E+00
      21     1     1     2   503   511  1.229871310E+01  6.432501938E+00 -9.372096937E+02  9.373124588E+02  1.525878906E-05  0.00000E+00  9.000E+00
#rwgt            1           9   3.0666665478152390E-004          12     1452597           0
</event>
<event>
      6   9999  3.45752E-01  8.61842E+00 -1.00000E+00  1.94262E-01
      21    -1     0     0   501   512  0.000000000E+00  0.000000000E+00  3.045310443E+01  3.045310443E+01  0.000000000E+00  0.00000E+00  9.000E+00
      21    -1     0     0   502   503  0.000000000E+00  0.000000000E+00 -2.194454361E+03  2.194454361E+03  0.000000000E+00  0.00000E+00  9.000E+00
      25     1     1     2     0     0  4.459410034E+01  5.747117561E+00 -9.757903827E+02  9.847899593E+02  1.249909192E+02  0.00000E+00  9.000E+00
       5     1     1     2   501     0 -7.590157855E+00  3.864828153E+00  1.559132587E+01  1.839019672E+01  4.750000000E+00  0.00000E+00  9.000E+00
      -5     1     1     2     0   503 -3.369607305E+01 -1.653603675E+00 -1.210396253E+03  1.210875639E+03  4.750000000E+00  0.00000E+00  9.000E+00
      21     1     1     2   502   512 -3.307869436E+00 -7.958342039E+00  6.594053776E+00  1.085167054E+01  9.195356739E-07  0.00000E+00  9.000E+00
#rwgt            1           9   6.4910456751243725E-002          12     1454814           0
</event>
<event>
      6   9999  3.45752E-01  1.87448E+02 -1.00000E+00  1.09877E-01
       3    -1     0     0   501     0  0.000000000E+00  0.000000000E+00  1.327019672E+02  1.327019672E+02  0.000000000E+00  0.00000E+00  9.000E+00
      21    -1     0     0   511   502  0.000000000E+00  0.000000000E+00 -1.234302661E+03  1.234302661E+03  0.000000000E+00  0.00000E+00  9.000E+00
      25     1     1     2     0     0 -4.422075574E+01  6.398971142E+01 -5.343982293E+02  5.543077775E+02  1.250019451E+02  0.00000E+00  9.000E+00
       5     1     1     2   501     0 -7.754464203E+00 -1.168940282E+00 -1.144807375E+01  1.466693659E+01  4.750000000E+00  0.00000E+00  9.000E+00
      -5     1     1     2     0   502 -1.319858909E+02 -9.880519816E+01 -5.854534529E+02  6.082442360E+02  4.750000000E+00  0.00000E+00  9.000E+00
       3     1     1     2   511     0  1.839611108E+02  3.598442702E+01  2.969906228E+01  1.897856780E+02  5.102380409E-06  0.00000E+00  9.000E+00
#rwgt            1           8   2.2820986333253911E-005          12     1458707           0
</event>
<event>
      6   9999 -3.45752E-01  7.04282E+00 -1.00000E+00  2.04802E-01
      21    -1     0     0   501   512  0.000000000E+00  0.000000000E+00  1.621253936E+01  1.621253936E+01  0.000000000E+00  0.00000E+00  9.000E+00
      21    -1     0     0   502   503  0.000000000E+00  0.000000000E+00 -9.495763694E+02  9.495763694E+02  0.000000000E+00  0.00000E+00  9.000E+00
      25     1     1     2     0     0 -3.296022129E+01  1.303840904E+01 -4.899028328E+02  5.068386296E+02  1.249969382E+02  0.00000E+00  9.000E+00
       5     1     1     2   501     0 -1.366694934E+00 -3.218657385E+00  3.702496465E+00  6.964092940E+00  4.750000000E+00  0.00000E+00  9.000E+00
      -5     1     1     2     0   503  3.004420511E+01 -1.541079226E+01 -4.418500530E+02  4.431638282E+02  4.750000000E+00  0.00000E+00  9.000E+00
      21     1     1     2   502   512  4.282711119E+00  5.591040606E+00 -5.313440734E+00  8.822358076E+00  1.576990671E-07  0.00000E+00  9.000E+00
#rwgt            1           9  -2.1318242710161299E-002          12     1459417           0
</event>
<event>
      6   9999 -3.45752E-01  6.45457E+00 -1.00000E+00  2.09733E-01
      21    -1     0     0   501   511  0.000000000E+00  0.000000000E+00  1.582584364E+01  1.582584364E+01  0.000000000E+00  0.00000E+00  9.000E+00
      21    -1     0     0   502   503  0.000000000E+00  0.000000000E+00 -8.081334788E+02  8.081334788E+02  0.000000000E+00  0.00000E+00  9.000E+00
      25     1     1     2     0     0  8.021136999E+00  3.069512684E+00 -7.832699943E+02  7.932282265E+02  1.250014993E+02  0.00000E+00  9.000E+00
       5     1     1     2   501     0 -2.636626911E-01 -7.975638326E-01 -1.551506724E+00  5.067079948E+00  4.750000000E+00  0.00000E+00  9.000E+00
      -5     1     1     2     0   503 -1.419622644E+01 -2.723531363E+00 -1.055390418E+01  1.851750149E+01  4.750000000E+00  0.00000E+00  9.000E+00
      21     1     1     2   502   511  6.438752128E+00  4.515825117E-01  3.067770065E+00  7.146514459E+00  6.049210766E-07  0.00000E+00  9.000E+00
#rwgt            1           9  -1.5282597900268232E-004          12     1463316           0
</event>
<event>
      6   9999 -3.45752E-01  1.36505E+01 -1.00000E+00  1.73998E-01
      21    -1     0     0   512   502  0.000000000E+00  0.000000000E+00  8.371327730E+01  8.371327730E+01  0.000000000E+00  0.00000E+00  9.000E+00
      21    -1     0     0   502   503  0.000000000E+00  0.000000000E+00 -1.609884504E+03  1.609884504E+03  0.000000000E+00  0.00000E+00  9.000E+00
      25     1     1     2     0     0  8.919570668E+01  3.169871065E+01 -1.288764882E+03  1.298267850E+03  1.249952273E+02  0.00000E+00  9.000E+00
       5     1     1     2   501     0 -2.110594630E+00 -1.125368548E+01  7.117751385E+01  7.224888252E+01  4.750000000E+00  0.00000E+00  9.000E+00
      -5     1     1     2     0   503 -7.632499878E+01 -1.204525829E+01 -2.891369546E+02  2.993214572E+02  4.750000000E+00  0.00000E+00  9.000E+00
      21     1     1     2   512   501 -1.076011327E+01 -8.399766877E+00 -1.944690367E+01  2.375959140E+01  4.129530925E-07  0.00000E+00  9.000E+00
#rwgt            1           9  -2.5799888072509231E-004          12     1466508           0
</event>
<event>
      6   9999 -3.45752E-01  2.23338E+00 -1.00000E+00  3.15382E-01
       2    -1     0     0   501     0  0.000000000E+00  0.000000000E+00  2.089193259E+03  2.089193259E+03  0.000000000E+00  0.00000E+00  9.000E+00
      21    -1     0     0   502   503  0.000000000E+00  0.000000000E+00 -8.785535023E+02  8.785535023E+02  0.000000000E+00  0.00000E+00  9.000E+00
      25     1     1     2     0     0  2.210457309E+00  7.897699442E+00 -7.976715838E+02  8.074482101E+02  1.250015864E+02  0.00000E+00  9.000E+00
       5     1     1     2   501     0 -5.257102190E-02 -5.904260801E-01  1.715072199E+00  5.084814580E+00  4.750000000E+00  0.00000E+00  9.000E+00
      -5     1     1     2     0   503 -4.414935916E-01 -5.878299367E+00 -7.411531675E+01  7.450095299E+01  4.750000000E+00  0.00000E+00  9.000E+00
       2     1     1     2   502     0 -1.716392695E+00 -1.428973995E+00  2.080711585E+03  2.080712784E+03  3.051757812E-05  0.00000E+00  9.000E+00
#rwgt            1           9  -1.0840672296971237               12     1470139           0
</event>
<event>
      6   9999  3.45752E-01  3.29989E+01 -1.00000E+00  1.45210E-01
      21    -1     0     0   502   503  0.000000000E+00  0.000000000E+00  1.052319527E+01  1.052319527E+01  0.000000000E+00  0.00000E+00  9.000E+00
      21    -1     0     0   501   511  0.000000000E+00  0.000000000E+00 -9.971844598E+02  9.971844598E+02  0.000000000E+00  0.00000E+00  9.000E+00
      25     1     1     2     0     0 -1.484753114E+01  3.924546856E+00 -5.547718344E+02  5.688872284E+02  1.250001563E+02  0.00000E+00  9.000E+00
       5     1     1     2   501     0  2.845218681E+01  2.149915902E+01 -1.921721880E+02  1.955107494E+02  4.750000000E+00  0.00000E+00  9.000E+00
      -5     1     1     2     0   503  4.830446393E+00  1.945489550E+00 -2.188191476E+01  2.298910254E+01  4.750000000E+00  0.00000E+00  9.000E+00
      21     1     1     2   502   511 -1.843510206E+01 -2.736919542E+01 -2.178353273E+02  2.203205748E+02  0.000000000E+00  0.00000E+00  9.000E+00
#rwgt            1           9   1.0119189531245475E-004          12     1477105           0
</event>
<event>
      6   9999  3.45752E-01  1.08475E+01 -1.00000E+00  1.83547E-01
      21    -1     0     0   502   503  0.000000000E+00  0.000000000E+00  9.895899841E+00  9.895899841E+00  0.000000000E+00  0.00000E+00  9.000E+00
      21    -1     0     0   501   512  0.000000000E+00  0.000000000E+00 -1.091699529E+03  1.091699529E+03  0.000000000E+00  0.00000E+00  9.000E+00
      25     1     1     2     0     0  3.426103680E+00  2.544578838E+01 -6.271076677E+02  6.399599529E+02  1.250019525E+02  0.00000E+00  9.000E+00
       5     1     1     2   501     0  3.345376993E+00  2.097943577E+00 -8.899196591E+01  8.920608393E+01  4.750000000E+00  0.00000E+00  9.000E+00
      -5     1     1     2     0   503  4.067342403E+00 -2.710953175E+01 -5.594963821E+01  6.248515425E+01  4.750000000E+00  0.00000E+00  9.000E+00
      21     1     1     2   502   512 -1.083882308E+01 -4.342002104E-01 -3.097543576E+02  3.099442379E+02  5.394796609E-06  0.00000E+00  9.000E+00
#rwgt            1           9  0.43600797497822097               12     1477859           0
</event>
<event>
      6   9999  3.45752E-01  2.15983E+01 -1.00000E+00  1.57703E-01
      21    -1     0     0   501   502  0.000000000E+00  0.000000000E+00  1.760963427E+01  1.760963427E+01  0.000000000E+00  0.00000E+00  9.000E+00
      21    -1     0     0   511   503  0.000000000E+00  0.000000000E+00 -1.040299772E+03  1.040299772E+03  0.000000000E+00  0.00000E+00  9.000E+00
      25     1     1     2     0     0 -3.865723598E+01  1.609581352E+01 -3.349739007E+02  3.599817784E+02  1.250036379E+02  0.00000E+00  9.000E+00
       5     1     1     2   501     0 -1.183163864E+00  7.531770587E-01  2.161226949E+00  5.403753726E+00  4.750000000E+00  0.00000E+00  9.000E+00
      -5     1     1     2     0   503  2.960994399E+01  2.172717296E+00 -5.644624526E+02  5.652626755E+02  4.750000000E+00  0.00000E+00  9.000E+00
      21     1     1     2   511   502  1.023045585E+01 -1.902170787E+01 -1.254150118E+02  1.272611991E+02  1.907348633E-06  0.00000E+00  9.000E+00
#rwgt            1           9   4.8179871342396308E-003          12     1480543           0
</event>
<event>
      6   9999  3.45752E-01  7.04559E+00 -1.00000E+00  2.04780E-01
      21    -1     0     0   502   512  0.000000000E+00  0.000000000E+00  1.076143100E+01  1.076143100E+01  0.000000000E+00  0.00000E+00  9.000E+00
      21    -1     0     0   501   502  0.000000000E+00  0.000000000E+00 -7.966691523E+02  7.966691523E+02  0.000000000E+00  0.00000E+00  9.000E+00
      25     1     1     2     0     0 -2.707560133E+01 -1.980181003E+01 -5.484818906E+02  5.635448524E+02  1.250008659E+02  0.00000E+00  9.000E+00
       5     1     1     2   501     0  4.032435815E+00 -5.490727852E+00 -8.217224748E+01  8.259085535E+01  4.750000000E+00  0.00000E+00  9.000E+00
      -5     1     1     2     0   503  1.602175177E+01  2.470942188E+01 -1.487334660E+02  1.516952817E+02  4.750000000E+00  0.00000E+00  9.000E+00
      21     1     1     2   503   512  7.021413747E+00  5.831160050E-01 -6.520117210E+00  9.599593935E+00  3.039252468E-07  0.00000E+00  9.000E+00
#rwgt            1           9   2.5205189515328614E-003          12     1482395           0
</event>
<event>
      6   9999  3.45752E-01  1.28279E+02 -1.00000E+00  1.16012E-01
      21    -1     0     0   511   502  0.000000000E+00  0.000000000E+00  1.564010616E+02  1.564010616E+02  0.000000000E+00  0.00000E+00  9.000E+00
       2    -1     0     0   501     0  0.000000000E+00  0.000000000E+00 -1.539158278E+03  1.539158278E+03  0.000000000E+00  0.00000E+00  9.000E+00
      25     1     1     2     0     0 -1.126534258E+02  1.261981356E+02 -1.138462164E+03  1.157724288E+03  1.249506436E+02  0.00000E+00  9.000E+00
       5     1     1     2   501     0  5.533652779E+01 -2.158103790E+01 -8.849991245E+01  1.066895942E+02  4.750000000E+00  0.00000E+00  9.000E+00
      -5     1     1     2     0   502  1.849431258E+02 -1.175442480E+02 -1.987356815E+02  2.958699776E+02  4.750000000E+00  0.00000E+00  9.000E+00
       2     1     1     2   511     0 -1.276262278E+02  1.292715023E+01  4.294054212E+01  1.352754797E+02  1.719260824E-06  0.00000E+00  9.000E+00
#rwgt            1           3   3.4869337395194093E-002          12     1485561           0
</event>
<event>
      6   9999  3.45752E-01  7.92423E+00 -1.00000E+00  1.98506E-01
      21    -1     0     0   501   502  0.000000000E+00  0.000000000E+00  6.414826826E+00  6.414826826E+00  0.000000000E+00  0.00000E+00  9.000E+00
       2    -1     0     0   502     0  0.000000000E+00  0.000000000E+00 -2.594713046E+03  2.594713046E+03  0.000000000E+00  0.00000E+00  9.000E+00
      25     1     1     2     0     0 -2.172772528E+01  2.197641898E+00 -1.301129626E+03  1.307302506E+03  1.249984574E+02  0.00000E+00  9.000E+00
       5     1     1     2   501     0  1.923459435E+00 -3.551445556E-01  6.554738310E-01  5.178606936E+00  4.750000000E+00  0.00000E+00  9.000E+00
      -5     1     1     2     0   503  2.617413885E+01  2.871118359E+00 -4.556082946E+02  4.563932619E+02  4.750000000E+00  0.00000E+00  9.000E+00
       2     1     1     2   503     0 -6.369873004E+00 -4.713615701E+00 -8.322157728E+02  8.322534986E+02  0.000000000E+00  0.00000E+00  9.000E+00
#rwgt            1           9   4.1480739556797905E-005          12     1487133           0
</event>
<event>
      6   9999  3.45752E-01  1.19895E+02 -1.00000E+00  1.17179E-01
      21    -1     0     0   511   502  0.000000000E+00  0.000000000E+00  2.936511975E+01  2.936511975E+01  0.000000000E+00  0.00000E+00  9.000E+00
       2    -1     0     0   501     0  0.000000000E+00  0.000000000E+00 -1.255520798E+03  1.255520798E+03  0.000000000E+00  0.00000E+00  9.000E+00
      25     1     1     2     0     0  1.361998601E+01  1.228258237E+02 -8.924717467E+02  9.096187836E+02  1.250153020E+02  0.00000E+00  9.000E+00
       5     1     1     2   501     0  2.008879014E+00  1.957221150E+01 -1.660559508E+01  2.618043823E+01  4.750000000E+00  0.00000E+00  9.000E+00
      -5     1     1     2     0   502 -1.017598259E+01 -2.262716153E+01 -7.087530405E+01  7.524234370E+01  4.750000000E+00  0.00000E+00  9.000E+00
       2     1     1     2   511     0 -5.452882434E+00 -1.197708737E+02 -2.462030327E+02  2.738443526E+02  2.697398305E-06  0.00000E+00  9.000E+00
#rwgt            1           3   3.0823285108976481E-007          12     1490353           0
</event>
<event>
      6   9999  3.45752E-01  4.54344E+00 -1.00000E+00  2.36929E-01
      21    -1     0     0   501   502  0.000000000E+00  0.000000000E+00  7.209736668E+00  7.209736668E+00  0.000000000E+00  0.00000E+00  9.000E+00
      21    -1     0     0   502   512  0.000000000E+00  0.000000000E+00 -7.981600785E+02  7.981600785E+02  0.000000000E+00  0.00000E+00  9.000E+00
      25     1     1     2     0     0 -3.295091559E+00  8.006948112E-01 -6.977629049E+02  7.088784309E+02  1.249962388E+02  0.00000E+00  9.000E+00
       5     1     1     2   501     0  1.607808036E-01 -1.399583949E-01 -3.841347254E+00  6.112600719E+00  4.750000000E+00  0.00000E+00  9.000E+00
      -5     1     1     2     0   503 -1.380308818E+00 -1.171712330E+00 -1.397403638E+01  1.486991443E+01  4.750000000E+00  0.00000E+00  9.000E+00
      21     1     1     2   503   512  4.514619574E+00  5.109759133E-01 -7.537205335E+01  7.550886910E+01  9.536743164E-07  0.00000E+00  9.000E+00
#rwgt            1           9   4.0553527820669623E-003          12     1490780           0
</event>
<event>
      6   9999  3.45752E-01  6.17925E+00 -1.00000E+00  2.12292E-01
      -2    -1     0     0     0   502  0.000000000E+00  0.000000000E+00  6.863069043E+02  6.863069043E+02  0.000000000E+00  0.00000E+00  9.000E+00
      21    -1     0     0   502   503  0.000000000E+00  0.000000000E+00 -5.192999472E+02  5.192999472E+02  0.000000000E+00  0.00000E+00  9.000E+00
      25     1     1     2     0     0  5.362295021E-01 -2.213532453E+01 -4.848741880E+02  5.012164084E+02  1.249985993E+02  0.00000E+00  9.000E+00
       5     1     1     2   501     0  5.197074314E-01  3.661097038E+00  1.446824762E+01  1.567055891E+01  4.750000000E+00  0.00000E+00  9.000E+00
      -5     1     1     2     0   503  4.279974628E+00  2.159050659E+01 -2.069504714E+01  3.058293043E+01  4.750000000E+00  0.00000E+00  9.000E+00
      -2     1     1     2     0   501 -5.335911562E+00 -3.116279089E+00  6.581079446E+02  6.581369537E+02  1.078959322E-05  0.00000E+00  9.000E+00
#rwgt            1           9   4.3506210773268627E-004          12     1494535           0
</event>
<event>
      6   9999 -3.45752E-01  2.03114E+01 -1.00000E+00  1.59700E-01
      21    -1     0     0   501   511  0.000000000E+00  0.000000000E+00  2.103952766E+01  2.103952766E+01  0.000000000E+00  0.00000E+00  9.000E+00
      21    -1     0     0   502   503  0.000000000E+00  0.000000000E+00 -9.664334213E+02  9.664334213E+02  0.000000000E+00  0.00000E+00  9.000E+00
      25     1     1     2     0     0 -8.750687472E+01 -1.482655110E+01 -4.216376983E+02  4.486432731E+02  1.250006324E+02  0.00000E+00  9.000E+00
       5     1     1     2   501     0  7.063527148E+01  2.418841346E+01 -3.807061539E+02  3.879873181E+02  4.750000000E+00  0.00000E+00  9.000E+00
      -5     1     1     2     0   503  1.840422528E+00  4.298874469E+00 -1.197366364E+02  1.199220250E+02  4.750000000E+00  0.00000E+00  9.000E+00
      21     1     1     2   502   511  1.503118072E+01 -1.366073683E+01 -2.331340502E+01  3.092033277E+01  7.539457465E-07  0.00000E+00  9.000E+00
#rwgt            1           9  -2.7408380626438634E-003          12     1498368           0
</event>
<event>
      6   9999  3.45752E-01  1.89219E+01 -1.00000E+00  1.62069E-01
      21    -1     0     0   501   502  0.000000000E+00  0.000000000E+00  1.857335905E+02  1.857335905E+02  0.000000000E+00  0.00000E+00  9.000E+00
      21    -1     0     0   512   503  0.000000000E+00  0.000000000E+00 -1.356766290E+02  1.356766290E+02  0.000000000E+00  0.00000E+00  9.000E+00
      25     1     1     2     0     0 -4.521061583E+01 -4.815533305E+01 -2.626069288E+01  1.437983362E+02  1.250016065E+02  0.00000E+00  9.000E+00
       5     1     1     2   501     0  6.006186746E+01  4.045899705E+01  9.632482935E+01  1.206042852E+02  4.750000000E+00  0.00000E+00  9.000E+00
      -5     1     1     2     0   503 -1.022656486E-02  1.943433298E+01  9.347919964E+00  2.208256124E+01  4.750000000E+00  0.00000E+00  9.000E+00
      21     1     1     2   512   502 -1.484102506E+01 -1.173799698E+01 -2.935509495E+01  3.492503683E+01  0.000000000E+00  0.00000E+00  9.000E+00
#rwgt            1           9   6.7972917001139172E-005          12     1500034           0
</event>
<event>
      6   9999 -3.45752E-01  4.33567E+00 -1.00000E+00  2.40823E-01
      21    -1     0     0   501   502  0.000000000E+00  0.000000000E+00  7.923172706E+00  7.923172706E+00  0.000000000E+00  0.00000E+00  9.000E+00
      21    -1     0     0   511   503  0.000000000E+00  0.000000000E+00 -1.371079163E+03  1.371079163E+03  0.000000000E+00  0.00000E+00  9.000E+00
      25     1     1     2     0     0 -5.456067636E+00  1.125544319E+01 -1.008080877E+03  1.015878487E+03  1.250023619E+02  0.00000E+00  9.000E+00
       5     1     1     2   501     0 -2.031280234E+00 -8.366722269E-01  4.455442517E-01  5.252345141E+00  4.750000000E+00  0.00000E+00  9.000E+00
      -5     1     1     2     0   503  3.178930012E+00 -9.933451866E+00 -2.711810310E+01  2.944033080E+01  4.750000000E+00  0.00000E+00  9.000E+00
      21     1     1     2   511   502  4.308417859E+00 -4.853190972E-01 -3.284025537E+02  3.284311728E+02  0.000000000E+00  0.00000E+00  9.000E+00
#rwgt            1           9  -1.0332217645682623E-005          12     1501676           0
</event>
<event>
      6   9999  3.45752E-01  2.04670E+01 -1.00000E+00  1.59449E-01
      21    -1     0     0   501   512  0.000000000E+00  0.000000000E+00  2.727190226E+01  2.727190226E+01  0.000000000E+00  0.00000E+00  9.000E+00
      21    -1     0     0   502   503  0.000000000E+00  0.000000000E+00 -1.092610625E+03  1.092610625E+03  0.000000000E+00  0.00000E+00  9.000E+00
      25     1     1     2     0     0  1.431214611E+01 -9.344449993E+00 -9.756633912E+02  9.837866130E+02  1.249995635E+02  0.00000E+00  9.000E+00
       5     1     1     2   501     0  3.851218279E+00  3.548865855E+00  2.021623872E+01  2.141693580E+01  4.750000000E+00  0.00000E+00  9.000E+00
      -5     1     1     2     0   503  1.882057073E+00  1.662755627E+00 -6.634726360E+01  6.656447087E+01  4.750000000E+00  0.00000E+00  9.000E+00
      21     1     1     2   502   512 -2.004542146E+01  4.132828512E+00 -4.354430702E+01  4.811450787E+01  4.768371582E-07  0.00000E+00  9.000E+00
#rwgt            1           9   1.4915980918159509E-003          12     1505984           0
</event>
<event>
      6   9999  3.45752E-01  2.33275E+01 -1.00000E+00  1.55271E-01
      21    -1     0     0   501   502  0.000000000E+00  0.000000000E+00  1.423331628E+01  1.423331628E+01  0.000000000E+00  0.00000E+00  9.000E+00
      21    -1     0     0   502   511  0.000000000E+00  0.000000000E+00 -9.865397323E+02  9.865397323E+02  0.000000000E+00  0.00000E+00  9.000E+00
      25     1     1     2     0     0 -4.995883910E+00  2.460431032E+01 -8.301758292E+02  8.399094092E+02  1.250023095E+02  0.00000E+00  9.000E+00
       5     1     1     2   501     0 -4.044360762E+00 -5.464866287E+00  5.812125062E+00  1.012743379E+01  4.750000000E+00  0.00000E+00  9.000E+00
      -5     1     1     2     0   503 -2.692591441E+00  1.022701556E+00 -2.764662210E+01  2.819918759E+01  4.750000000E+00  0.00000E+00  9.000E+00
      21     1     1     2   503   511  1.173283611E+01 -2.016214559E+01 -1.202960898E+02  1.225370180E+02  3.015782986E-06  0.00000E+00  9.000E+00
#rwgt            1           9   1.9745606569472024E-002          12     1508464           0
</event>
<event>
      6   9999  3.45752E-01  1.07602E+01 -1.00000E+00  1.83903E-01
      21    -1     0     0   501   502  0.000000000E+00  0.000000000E+00  6.016831281E+00  6.016831281E+00  0.000000000E+00  0.00000E+00  9.000E+00
      21    -1     0     0   502   512  0.000000000E+00  0.000000000E+00 -1.916967394E+03  1.916967394E+03  0.000000000E+00  0.00000E+00  9.000E+00
      25     1     1     2     0     0 -3.555824852E+01  4.047043411E+00 -8.241991102E+02  8.343920697E+02  1.250007411E+02  0.00000E+00  9.000E+00
       5     1     1     2   501     0 -2.316610861E-01 -2.405293752E-01 -9.699920111E+00  1.080566848E+01  4.750000000E+00  0.00000E+00  9.000E+00
      -5     1     1     2     0   503  2.532660617E+01 -1.296335563E+00 -9.225506800E+02  9.229113918E+02  4.750000000E+00  0.00000E+00  9.000E+00
      21     1     1     2   503   512  1.046330344E+01 -2.510178473E+00 -1.545008524E+02  1.548750952E+02  0.000000000E+00  0.00000E+00  9.000E+00
#rwgt            1           9   1.6863567394744705E-002          12     1510621           0
</event>
<event>
      6   9999  3.45752E-01  3.47442E+00 -1.00000E+00  2.61233E-01
      21    -1     0     0   501   511  0.000000000E+00  0.000000000E+00  1.511823888E+02  1.511823888E+02  0.000000000E+00  0.00000E+00  9.000E+00
      21    -1     0     0   502   503  0.000000000E+00  0.000000000E+00 -3.824439693E+03  3.824439693E+03  0.000000000E+00  0.00000E+00  9.000E+00
      25     1     1     2     0     0  3.585271449E-01  5.464914209E+00 -3.044557579E+03  3.047127357E+03  1.249971416E+02  0.00000E+00  9.000E+00
       5     1     1     2   501     0 -9.255604458E+00 -2.423515718E+00  8.287631426E+00  1.351987341E+01  4.750000000E+00  0.00000E+00  9.000E+00
      -5     1     1     2     0   503  8.474037129E+00  4.071695147E-01 -7.759289287E+02  7.759898453E+02  4.750000000E+00  0.00000E+00  9.000E+00
      21     1     1     2   502   511  4.230401843E-01 -3.448568005E+00  1.389415718E+02  1.389850062E+02  7.864199878E-06  0.00000E+00  9.000E+00
#rwgt            1           9   1.0235557942605066E-004          12     1512706           0
</event>
<event>
      6   9999 -3.45752E-01  1.34062E+01 -1.00000E+00  1.74711E-01
      21    -1     0     0   501   512  0.000000000E+00  0.000000000E+00  1.039866738E+02  1.039866738E+02  0.000000000E+00  0.00000E+00  9.000E+00
      21    -1     0     0   502   503  0.000000000E+00  0.000000000E+00 -4.381586839E+02  4.381586839E+02  0.000000000E+00  0.00000E+00  9.000E+00
      25     1     1     2     0     0 -5.048757674E+00  1.261211379E+01 -3.597038036E+02  3.810461627E+02  1.249991859E+02  0.00000E+00  9.000E+00
       5     1     1     2   501     0 -4.453786297E+00 -2.647644419E+00  6.135142870E+01  6.175278566E+01  4.750000000E+00  0.00000E+00  9.000E+00
      -5     1     1     2     0   503  3.129014746E+00  1.829732259E+00 -6.602752772E+01  6.629732702E+01  4.750000000E+00  0.00000E+00  9.000E+00
      21     1     1     2   502   512  6.373529225E+00 -1.179420163E+01  3.020789254E+01  3.304908226E+01  6.743495762E-07  0.00000E+00  9.000E+00
#rwgt            1           9  -96.915073104619836               12     1519621           0
</event>
<event>
      6   9999  3.45752E-01  2.04752E+01 -1.00000E+00  1.59436E-01
      21    -1     0     0   501   502  0.000000000E+00  0.000000000E+00  1.784874617E+00  1.784874617E+00  0.000000000E+00  0.00000E+00  9.000E+00
      21    -1     0     0   511   503  0.000000000E+00  0.000000000E+00 -4.584818280E+03  4.584818280E+03  0.000000000E+00  0.00000E+00  9.000E+00
      25     1     1     2     0     0  4.756585303E+00 -1.775697130E+01 -3.543698872E+03  3.545950410E+03  1.249987287E+02  0.00000E+00  9.000E+00
       5     1     1     2   501     0 -1.501007384E+00 -3.349342057E+00 -2.069728697E+01  2.155020425E+01  4.750000000E+00  0.00000E+00  9.000E+00
      -5     1     1     2     0   503 -7.907025178E+00  1.166502764E+00 -4.517055793E+02  4.518012557E+02  4.750000000E+00  0.00000E+00  9.000E+00
      21     1     1     2   511   502  4.651447259E+00  1.993981059E+01 -5.669316678E+02  5.673012850E+02  7.629394531E-06  0.00000E+00  9.000E+00
#rwgt            1           9   6.3808644742201761E-003          12     1522593           0
</event>
<event>
      6   9999  3.45752E-01  1.69286E+01 -1.00000E+00  1.65941E-01
      21    -1     0     0   501   502  0.000000000E+00  0.000000000E+00  6.044245676E+01  6.044245676E+01  0.000000000E+00  0.00000E+00  9.000E+00
      21    -1     0     0   502   512  0.000000000E+00  0.000000000E+00 -2.196157003E+03  2.196157003E+03  0.000000000E+00  0.00000E+00  9.000E+00
      25     1     1     2     0     0 -3.234302566E+00  2.525193349E+01 -1.169037828E+03  1.175977855E+03  1.250054059E+02  0.00000E+00  9.000E+00
       5     1     1     2   501     0  1.840456250E-01 -2.055707385E+00  5.668983332E+01  5.692591244E+01  4.750000000E+00  0.00000E+00  9.000E+00
      -5     1     1     2     0   503 -1.267778230E+00 -6.827608831E+00 -2.431687612E+02  2.433142668E+02  4.750000000E+00  0.00000E+00  9.000E+00
      21     1     1     2   503   512  4.318035171E+00 -1.636861728E+01 -7.801977910E+02  7.803814261E+02  1.078959322E-05  0.00000E+00  9.000E+00
#rwgt            1           9   3.3748482329088315E-004          12     1524034           0
</event>
<event>
      6   9999  3.45752E-01  5.20226E+00 -1.00000E+00  2.23069E-01
      21    -1     0     0   501   502  0.000000000E+00  0.000000000E+00  2.315159234E+01  2.315159234E+01  0.000000000E+00  0.00000E+00  9.000E+00
      21    -1     0     0   511   503  0.000000000E+00  0.000000000E+00 -1.048681338E+03  1.048681338E+03  0.000000000E+00  0.00000E+00  9.000E+00
      25     1     1     2     0     0  1.506959034E+01  5.640613993E+00 -9.921138359E+02  9.999947448E+02  1.242606830E+02  0.00000E+00  9.000E+00
       5     1     1     2   501     0 -4.141920027E+00 -4.755556405E-01  1.687323492E+01  1.801805238E+01  4.750000000E+00  0.00000E+00  9.000E+00
      -5     1     1     2     0   503 -8.373480663E+00 -9.697127254E+00 -3.176344761E+01  3.457786227E+01  4.750000000E+00  0.00000E+00  9.000E+00
      21     1     1     2   511   502 -2.554189646E+00  4.532068901E+00 -1.852569704E+01  1.924227077E+01  0.000000000E+00  0.00000E+00  9.000E+00
#rwgt            1           9   5.6290489666348113E-004          12     1527099           0
</event>
<event>
      6   9999  3.45752E-01  7.28253E+01 -1.00000E+00  1.26593E-01
      21    -1     0     0   501   512  0.000000000E+00  0.000000000E+00  3.066519775E+01  3.066519775E+01  0.000000000E+00  0.00000E+00  9.000E+00
      21    -1     0     0   502   503  0.000000000E+00  0.000000000E+00 -1.137768757E+03  1.137768757E+03  0.000000000E+00  0.00000E+00  9.000E+00
      25     1     1     2     0     0 -2.413510502E+00  3.117047211E+01 -4.168270204E+02  4.363632518E+02  1.252625212E+02  0.00000E+00  9.000E+00
       5     1     1     2   501     0  7.254053934E+01  5.647041409E+01 -2.217421081E+02  2.400899051E+02  4.750000000E+00  0.00000E+00  9.000E+00
      -5     1     1     2     0   503 -1.685070490E+01 -3.799047035E+01 -3.525883746E+02  3.550610461E+02  4.750000000E+00  0.00000E+00  9.000E+00
      21     1     1     2   502   512 -5.327632394E+01 -4.965041585E+01 -1.159460566E+02  1.369197521E+02  1.907348633E-06  0.00000E+00  9.000E+00
#rwgt            1           9  0.26085450343863054               12     1531804           0
</event>
<event>
      6   9999  3.45752E-01  1.29715E+01 -1.00000E+00  1.76028E-01
      21    -1     0     0   511   503  0.000000000E+00  0.000000000E+00  1.781893365E+01  1.781893365E+01  0.000000000E+00  0.00000E+00  9.000E+00
      21    -1     0     0   501   502  0.000000000E+00  0.000000000E+00 -4.892521260E+03  4.892521260E+03  0.000000000E+00  0.00000E+00  9.000E+00
      25     1     1     2     0     0  8.887112541E+01 -1.601708634E+02 -2.022752568E+03  2.034872470E+03  1.250009538E+02  0.00000E+00  9.000E+00
       5     1     1     2   501     0  8.144952651E-01  1.257395281E+00 -1.966681418E+03  1.966687724E+03  4.750000000E+00  0.00000E+00  9.000E+00
      -5     1     1     2     0   503 -1.026040251E+02  1.600857911E+02 -8.540556545E+02  8.749792397E+02  4.750000000E+00  0.00000E+00  9.000E+00
      21     1     1     2   511   502  1.291840440E+01 -1.172323042E+00 -3.121268678E+01  3.380075930E+01  9.536743164E-07  0.00000E+00  9.000E+00
#rwgt            1           9   6.4728440077061883E-003          12     1532405           0
</event>
<event>
      6   9999  3.45752E-01  1.43425E+01 -1.00000E+00  1.72076E-01
      21    -1     0     0   512   502  0.000000000E+00  0.000000000E+00  1.705661601E+02  1.705661601E+02  0.000000000E+00  0.00000E+00  9.000E+00
      21    -1     0     0   502   503  0.000000000E+00  0.000000000E+00 -7.496505125E+02  7.496505125E+02  0.000000000E+00  0.00000E+00  9.000E+00
      25     1     1     2     0     0  1.154159861E+01  1.019078906E+01 -6.607637323E+02  6.726593954E+02  1.249995662E+02  0.00000E+00  9.000E+00
       5     1     1     2   501     0 -7.608585211E+00  9.332918520E+00 -2.158328020E+01  2.516732845E+01  4.750000000E+00  0.00000E+00  9.000E+00
      -5     1     1     2     0   503 -8.824714769E+00 -6.041152174E+00 -5.866886846E+01  5.982449111E+01  4.750000000E+00  0.00000E+00  9.000E+00
      21     1     1     2   512   501  4.891701371E+00 -1.348255541E+01  1.619315286E+02  1.625654576E+02  4.672030912E-06  0.00000E+00  9.000E+00
#rwgt            1           9   145.45721283525501               12     1535878           0
</event>
<event>
      6   9999  3.45752E-01  9.17096E+00 -1.00000E+00  1.91242E-01
      21    -1     0     0   501   502  0.000000000E+00  0.000000000E+00  5.269535107E+00  5.269535107E+00  0.000000000E+00  0.00000E+00  9.000E+00
       2    -1     0     0   502     0  0.000000000E+00  0.000000000E+00 -2.324045392E+03  2.324045392E+03  0.000000000E+00  0.00000E+00  9.000E+00
      25     1     1     2     0     0  2.201645162E+01  7.751945818E+00 -9.647628505E+02  9.731069144E+02  1.249995689E+02  0.00000E+00  9.000E+00
       5     1     1     2   501     0 -2.830057168E-01 -1.854706904E-02 -7.768370194E+00  9.109912826E+00  4.750000000E+00  0.00000E+00  9.000E+00
      -5     1     1     2     0   503 -3.013899610E+01 -1.140126566E+01 -6.699787139E+02  6.707699960E+02  4.750000000E+00  0.00000E+00  9.000E+00
       2     1     1     2   503     0  8.405550195E+00  3.667866913E+00 -6.762659219E+02  6.763281036E+02  7.629394531E-06  0.00000E+00  9.000E+00
#rwgt            1           9  0.89144828104837803               12     1537658           0
</event>
<event>
      6   9999  3.45752E-01  6.50713E+00 -1.00000E+00  2.09264E-01
      21    -1     0     0   511   502  0.000000000E+00  0.000000000E+00  1.736438253E+02  1.736438253E+02  0.000000000E+00  0.00000E+00  9.000E+00
      21    -1     0     0   502   503  0.000000000E+00  0.000000000E+00 -4.376919538E+02  4.376919538E+02  0.000000000E+00  0.00000E+00  9.000E+00
      25     1     1     2     0     0  7.001943513E+00 -1.461735736E+02 -1.855793701E+02  2.673599955E+02  1.250036949E+02  0.00000E+00  9.000E+00
       5     1     1     2   501     0 -8.770386236E+00  1.568182349E+00  9.531687251E+01  9.585013071E+01  4.750000000E+00  0.00000E+00  9.000E+00
      -5     1     1     2     0   503 -3.685241817E-01  1.507516169E+02 -1.828109562E+02  2.369991435E+02  4.750000000E+00  0.00000E+00  9.000E+00
      21     1     1     2   511   501  2.136966905E+00 -6.146225612E+00  9.025325296E+00  1.112650949E+01  1.192092896E-07  0.00000E+00  9.000E+00
#rwgt            1           9  0.32161143307514783               12     1540081           0
</event>
<event>
      6   9999  3.45752E-01  2.47733E+01 -1.00000E+00  1.53425E-01
      21    -1     0     0   512   502  0.000000000E+00  0.000000000E+00  1.582804234E+01  1.582804234E+01  0.000000000E+00  0.00000E+00  9.000E+00
       2    -1     0     0   501     0  0.000000000E+00  0.000000000E+00 -2.842416560E+03  2.842416560E+03  0.000000000E+00  0.00000E+00  9.000E+00
      25     1     1     2     0     0 -1.024301994E+02  3.295901512E+01 -9.167924410E+02  9.315108980E+02  1.250037228E+02  0.00000E+00  9.000E+00
       5     1     1     2   501     0  5.479908363E+01  5.151817759E+00 -6.506660945E+02  6.530072051E+02  4.750000000E+00  0.00000E+00  9.000E+00
      -5     1     1     2     0   502  6.599437357E+01 -5.473926972E+01 -1.238540945E+03  1.241514350E+03  4.750000000E+00  0.00000E+00  9.000E+00
       2     1     1     2   512     0 -1.836325779E+01  1.662843684E+01 -2.058903711E+01  3.221214985E+01  1.862108630E-06  0.00000E+00  9.000E+00
#rwgt            1           3   4.0289241364645299E-004          12     1545524           0
</event>
<event>
      6   9999  3.45752E-01  5.77774E+00 -1.00000E+00  2.16367E-01
      21    -1     0     0   501   502  0.000000000E+00  0.000000000E+00  8.042375126E+02  8.042375126E+02  0.000000000E+00  0.00000E+00  9.000E+00
      21    -1     0     0   511   503  0.000000000E+00  0.000000000E+00 -1.557110065E+02  1.557110065E+02  0.000000000E+00  0.00000E+00  9.000E+00
      25     1     1     2     0     0  6.541430431E+01  3.299360807E+01  1.727950162E+02  2.255016931E+02  1.250011465E+02  0.00000E+00  9.000E+00
       5     1     1     2   501     0 -5.756784863E+00  1.002158426E+01  5.938547495E+02  5.939861941E+02  4.750000000E+00  0.00000E+00  9.000E+00
      -5     1     1     2     0   503 -5.538634203E+01 -3.912425784E+01 -9.623260702E+01  1.178203361E+02  4.750000000E+00  0.00000E+00  9.000E+00
      21     1     1     2   511   502 -4.271177415E+00 -3.890934488E+00 -2.189065256E+01  2.264029587E+01  4.768371582E-07  0.00000E+00  9.000E+00
#rwgt            1           9  0.90401536537635030               12     1548463           0
</event>
<event>
      6   9999 -3.45752E-01  1.40582E+01 -1.00000E+00  1.72849E-01
      21    -1     0     0   501   502  0.000000000E+00  0.000000000E+00  1.297486205E+01  1.297486205E+01  0.000000000E+00  0.00000E+00  9.000E+00
      21    -1     0     0   512   503  0.000000000E+00  0.000000000E+00 -9.269031881E+02  9.269031881E+02  0.000000000E+00  0.00000E+00  9.000E+00
      25     1     1     2     0     0 -1.651620835E+01  1.127001914E+01 -7.733489553E+02  7.836424361E+02  1.250082497E+02  0.00000E+00  9.000E+00
       5     1     1     2   501     0  4.332157407E+00 -9.655687159E-01  3.277855240E+00  7.280573172E+00  4.750000000E+00  0.00000E+00  9.000E+00
      -5     1     1     2     0   503  1.625500478E+01  3.151393624E+00 -3.314513738E+01  3.735397026E+01  4.750000000E+00  0.00000E+00  9.000E+00
      21     1     1     2   512   502 -4.070953841E+00 -1.345584404E+01 -1.107120886E+02  1.116010706E+02  1.348699152E-06  0.00000E+00  9.000E+00
#rwgt            1           9  -4.2465123948454473E-004          12     1554346           0
</event>
<event>
      6   9999 -3.45752E-01  8.45209E+00 -1.00000E+00  1.95230E-01
      21    -1     0     0   502   503  0.000000000E+00  0.000000000E+00  3.781271519E+01  3.781271519E+01  0.000000000E+00  0.00000E+00  9.000E+00
      21    -1     0     0   511   502  0.000000000E+00  0.000000000E+00 -1.273898330E+03  1.273898330E+03  0.000000000E+00  0.00000E+00  9.000E+00
      25     1     1     2     0     0  7.468211069E+00 -5.809944960E+00 -1.207344428E+03  1.213828843E+03  1.249414373E+02  0.00000E+00  9.000E+00
       5     1     1     2   501     0  2.588458786E-01  9.134539585E-01  5.817700990E+00  7.570306740E+00  4.750000000E+00  0.00000E+00  9.000E+00
      -5     1     1     2     0   503  2.571884348E-01  2.123470217E+00  2.734341750E+01  2.783523401E+01  4.750000000E+00  0.00000E+00  9.000E+00
      21     1     1     2   511   501 -7.984245382E+00  2.773020784E+00 -6.190230605E+01  6.247666215E+01  0.000000000E+00  0.00000E+00  9.000E+00
#rwgt            1           9  -6.7403934247805457E-004          12     1556716           0
</event>
<event>
      6   9999  3.45752E-01  8.31389E+00 -1.00000E+00  1.96057E-01
      21    -1     0     0   501   502  0.000000000E+00  0.000000000E+00  1.497650371E+02  1.497650371E+02  0.000000000E+00  0.00000E+00  9.000E+00
       3    -1     0     0   502     0  0.000000000E+00  0.000000000E+00 -5.013791966E+02  5.013791966E+02  0.000000000E+00  0.00000E+00  9.000E+00
      25     1     1     2     0     0 -2.136988940E+01  9.138325575E+00  3.481439423E+01  1.318225578E+02  1.249998542E+02  0.00000E+00  9.000E+00
       5     1     1     2   501     0 -1.124955604E+00 -4.176697401E+00  6.275771781E+01  6.308568752E+01  4.750000000E+00  0.00000E+00  9.000E+00
      -5     1     1     2     0   503  2.118626013E+01 -1.317188848E+01 -4.281690582E+01  4.978158483E+01  4.750000000E+00  0.00000E+00  9.000E+00
       3     1     1     2   503     0  1.308584872E+00  8.210260310E+00 -4.063693657E+02  4.064544035E+02  5.394796609E-06  0.00000E+00  9.000E+00
#rwgt            1           9   7.6261868333921557E-004          12     1560789           0
</event>
<event>
      6   9999  3.45752E-01  2.26285E+00 -1.00000E+00  3.13432E-01
      21    -1     0     0   501   502  0.000000000E+00  0.000000000E+00  2.065319959E+01  2.065319959E+01  0.000000000E+00  0.00000E+00  9.000E+00
      21    -1     0     0   511   503  0.000000000E+00  0.000000000E+00 -1.181024394E+03  1.181024394E+03  0.000000000E+00  0.00000E+00  9.000E+00
      25     1     1     2     0     0 -6.905536562E-01 -4.696318822E+00 -7.966378307E+02  8.064000130E+02  1.250064610E+02  0.00000E+00  9.000E+00
       5     1     1     2   501     0 -1.629412058E-01 -8.788642924E-02  1.535779317E+01  1.607664720E+01  4.750000000E+00  0.00000E+00  9.000E+00
      -5     1     1     2     0   503 -1.168676168E+00  3.768669375E+00 -1.995571186E+02  1.996526352E+02  4.750000000E+00  0.00000E+00  9.000E+00
      21     1     1     2   511   502  2.022171030E+00  1.015535877E+00 -1.795340380E+02  1.795482979E+02  3.303624740E-06  0.00000E+00  9.000E+00
#rwgt            1           9   4.9486344293313200E-003          12     1563758           0
</event>
<event>
      6   9999  3.45752E-01  1.02847E+01 -1.00000E+00  1.85919E-01
      21    -1     0     0   501   512  0.000000000E+00  0.000000000E+00  4.070502867E+02  4.070502867E+02  0.000000000E+00  0.00000E+00  9.000E+00
      21    -1     0     0   502   503  0.000000000E+00  0.000000000E+00 -2.521968716E+02  2.521968716E+02  0.000000000E+00  0.00000E+00  9.000E+00
      25     1     1     2     0     0 -8.623282605E+00  6.059188727E+00 -2.248505811E+02  2.574778603E+02  1.250039599E+02  0.00000E+00  9.000E+00
       5     1     1     2   501     0  1.152172720E+00  5.936157159E-01  2.777811901E+01  2.821110203E+01  4.750000000E+00  0.00000E+00  9.000E+00
      -5     1     1     2     0   503  3.222605514E+00  2.713330911E+00 -9.805028256E+00  1.168111425E+01  4.750000000E+00  0.00000E+00  9.000E+00
      21     1     1     2   502   512  4.248504371E+00 -9.366135354E+00  3.617309055E+02  3.618770817E+02  5.394796609E-06  0.00000E+00  9.000E+00
#rwgt            1           9   6.1667557392915964E-004          12     1572249           0
</event>
<event>
      6   9999  3.45752E-01  2.15014E+01 -1.00000E+00  1.57847E-01
      21    -1     0     0   501   502  0.000000000E+00  0.000000000E+00  8.687017198E+01  8.687017198E+01  0.000000000E+00  0.00000E+00  9.000E+00
      21    -1     0     0   511   503  0.000000000E+00  0.000000000E+00 -1.203797252E+02  1.203797252E+02  0.000000000E+00  0.00000E+00  9.000E+00
      25     1     1     2     0     0  1.924441661E+01 -1.457965280E+01 -3.991581492E+00  1.273705017E+02  1.249975925E+02  0.00000E+00  9.000E+00
       5     1     1     2   501     0  3.029080755E+00 -1.805301353E+00  1.950188400E+01  2.037941174E+01  4.750000000E+00  0.00000E+00  9.000E+00
      -5     1     1     2     0   503 -3.744079163E+00  5.477481635E+00 -2.980358352E+00  8.687115157E+00  4.750000000E+00  0.00000E+00  9.000E+00
      21     1     1     2   511   502 -1.852941820E+01  1.090747252E+01 -4.603949734E+01  5.081286856E+01  6.743495762E-07  0.00000E+00  9.000E+00
#rwgt            1           9  0.24877751320304428               12     1574915           0
</event>
<event>
      6   9999  3.45752E-01  3.39572E+01 -1.00000E+00  1.44439E-01
      21    -1     0     0   501   502  0.000000000E+00  0.000000000E+00  1.846197657E+02  1.846197657E+02  0.000000000E+00  0.00000E+00  9.000E+00
      21    -1     0     0   512   503  0.000000000E+00  0.000000000E+00 -6.132006987E+02  6.132006987E+02  0.000000000E+00  0.00000E+00  9.000E+00
      25     1     1     2     0     0 -1.023679625E+01  1.804235966E+01 -5.312947567E+02  5.461981310E+02  1.250118437E+02  0.00000E+00  9.000E+00
       5     1     1     2   501     0  4.791408830E+00  2.157757841E+01  1.700424025E+02  1.715387147E+02  4.750000000E+00  0.00000E+00  9.000E+00
      -5     1     1     2     0   503 -3.842571256E+00 -6.957698100E+00 -1.186284271E+01  1.504873595E+01  4.750000000E+00  0.00000E+00  9.000E+00
      21     1     1     2   512   502  9.287958678E+00 -3.266223997E+01 -5.546573616E+01  6.503488283E+01  1.168007728E-06  0.00000E+00  9.000E+00
#rwgt            1           9   1.9232316652650368E-004          12     1576108           0
</event>
<event>
      6   9999 -3.45752E-01  1.18414E+02 -1.00000E+00  1.17396E-01
       2    -1     0     0   501     0  0.000000000E+00  0.000000000E+00  1.195344535E+03  1.195344535E+03  0.000000000E+00  0.00000E+00  9.000E+00
      21    -1     0     0   502   503  0.000000000E+00  0.000000000E+00 -9.884219929E+02  9.884219929E+02  0.000000000E+00  0.00000E+00  9.000E+00
      25     1     1     2     0     0  8.629402227E+00  9.696784788E+01 -8.655227207E+02  8.799043941E+02  1.249997304E+02  0.00000E+00  9.000E+00
       5     1     1     2   501     0 -1.094956113E+01 -4.419050808E+00 -6.100907284E+00  1.411398132E+01  4.750000000E+00  0.00000E+00  9.000E+00
      -5     1     1     2     0   503 -3.386196892E+01  2.020155744E+01 -9.878888373E+01  1.064731981E+02  4.750000000E+00  0.00000E+00  9.000E+00
       2     1     1     2   502     0  3.618212782E+01 -1.127503545E+02  1.177335054E+03  1.183274954E+03  1.525878906E-05  0.00000E+00  9.000E+00
#rwgt            1           9  -3.3588194173760286E-002          12     1579254           0
</event>
<event>
      6   9999 -3.45752E-01  2.54134E+01 -1.00000E+00  1.52655E-01
      21    -1     0     0   511   502  0.000000000E+00  0.000000000E+00  1.341736539E+03  1.341736539E+03  0.000000000E+00  0.00000E+00  9.000E+00
      21    -1     0     0   502   503  0.000000000E+00  0.000000000E+00 -9.128294133E+02  9.128294133E+02  0.000000000E+00  0.00000E+00  9.000E+00
      25     1     1     2     0     0 -6.271227613E+01 -6.386453820E+01 -5.629376293E+02  5.835543454E+02  1.250015631E+02  0.00000E+00  9.000E+00
       5     1     1     2   501     0  3.687446187E+01 -1.002534558E+00 -1.145498390E+02  1.204365357E+02  4.750000000E+00  0.00000E+00  9.000E+00
      -5     1     1     2     0   503  1.856532343E+01  4.051644650E+01 -2.197059924E+02  2.242309953E+02  4.750000000E+00  0.00000E+00  9.000E+00
      21     1     1     2   511   501  7.272490834E+00  2.435062626E+01  1.326100587E+03  1.326344076E+03  1.525878906E-05  0.00000E+00  9.000E+00
#rwgt            1           9  -2.1368048531810364E-002          12     1579604           0
</event>
<event>
      6   9999  3.45752E-01  8.30230E+00 -1.00000E+00  1.96127E-01
      21    -1     0     0   512   502  0.000000000E+00  0.000000000E+00  1.204048685E+02  1.204048685E+02  0.000000000E+00  0.00000E+00  9.000E+00
       1    -1     0     0   501     0  0.000000000E+00  0.000000000E+00 -1.568097625E+03  1.568097625E+03  0.000000000E+00  0.00000E+00  9.000E+00
      25     1     1     2     0     0  1.862332689E+02 -2.795389010E+02 -4.976404302E+02  6.132668216E+02  1.250014763E+02  0.00000E+00  9.000E+00
       5     1     1     2   501     0 -2.122273126E+01  1.794908494E+02 -6.653557849E+02  6.894840479E+02  4.750000000E+00  0.00000E+00  9.000E+00
      -5     1     1     2     0   502 -1.635283870E+02  1.082169791E+02 -3.056709651E+02  3.631938179E+02  4.750000000E+00  0.00000E+00  9.000E+00
       1     1     1     2   512     0 -1.482150626E+00 -8.168927513E+00  2.097442392E+01  2.255780587E+01  1.168007728E-06  0.00000E+00  9.000E+00
#rwgt            1           1   1.5560179782039387E-004          12     1580846           0
</event>
<event>
      6   9999  3.45752E-01  2.14077E+01 -1.00000E+00  1.57988E-01
      -2    -1     0     0     0   502  0.000000000E+00  0.000000000E+00  6.324366685E+02  6.324366685E+02  0.000000000E+00  0.00000E+00  9.000E+00
      21    -1     0     0   502   503  0.000000000E+00  0.000000000E+00 -1.086352169E+03  1.086352169E+03  0.000000000E+00  0.00000E+00  9.000E+00
      25     1     1     2     0     0  2.632464147E+01 -2.725806404E+00 -1.034783029E+03  1.042639291E+03  1.249814347E+02  0.00000E+00  9.000E+00
       5     1     1     2   501     0  5.297942894E+00  1.203261081E+01  2.108987883E+01  2.530212265E+01  4.750000000E+00  0.00000E+00  9.000E+00
      -5     1     1     2     0   503 -1.390364790E+01  2.706896360E+00 -4.411465661E+01  4.657578921E+01  4.750000000E+00  0.00000E+00  9.000E+00
      -2     1     1     2     0   501 -1.771893646E+01 -1.201370076E+01  6.038923063E+02  6.042716337E+02  1.078959322E-05  0.00000E+00  9.000E+00
#rwgt            1           9   1.6055714174642503E-003          12     1581777           0
</event>
<event>
      6   9999  3.45752E-01  1.35201E+01 -1.00000E+00  1.74376E-01
       1    -1     0     0   501     0  0.000000000E+00  0.000000000E+00  6.341004180E+02  6.341004180E+02  0.000000000E+00  0.00000E+00  9.000E+00
      21    -1     0     0   502   503  0.000000000E+00  0.000000000E+00 -2.860863170E+02  2.860863170E+02  0.000000000E+00  0.00000E+00  9.000E+00
      25     1     1     2     0     0  2.401427620E+01 -6.224588813E+00 -1.785771229E+02  2.193849226E+02  1.249980978E+02  0.00000E+00  9.000E+00
       5     1     1     2   501     0  3.888790955E+00  3.358241329E+00  2.451427374E+01  2.549338340E+01  4.750000000E+00  0.00000E+00  9.000E+00
      -5     1     1     2     0   503 -1.440094484E+01  3.562890493E+00 -8.583704559E+01  8.723899527E+01  4.750000000E+00  0.00000E+00  9.000E+00
       1     1     1     2   502     0 -1.350212232E+01 -6.965430088E-01  5.879139957E+02  5.880694337E+02  7.629394531E-06  0.00000E+00  9.000E+00
#rwgt            1           9   8.5695230700299552E-002          12     1583547           0
</event>
<event>
      6   9999  3.45752E-01  8.39662E+00 -1.00000E+00  1.95559E-01
      21    -1     0     0   511   502  0.000000000E+00  0.000000000E+00  4.684697378E+01  4.684697378E+01  0.000000000E+00  0.00000E+00  9.000E+00
      21    -1     0     0   502   503  0.000000000E+00  0.000000000E+00 -1.052042125E+03  1.052042125E+03  0.000000000E+00  0.00000E+00  9.000E+00
      25     1     1     2     0     0 -2.762118108E+00  6.249707756E+00 -9.933089578E+02  1.001166340E+03  1.249986648E+02  0.00000E+00  9.000E+00
       5     1     1     2   501     0  5.509214138E+00 -4.492814328E+00  1.973064413E+01  2.150343319E+01  4.750000000E+00  0.00000E+00  9.000E+00
      -5     1     1     2     0   503  4.542523471E+00  2.410204959E+00 -5.288882994E+01  5.335011190E+01  4.750000000E+00  0.00000E+00  9.000E+00
      21     1     1     2   511   501 -7.289619501E+00 -4.167098388E+00  2.127199263E+01  2.286921363E+01  1.305872339E-06  0.00000E+00  9.000E+00
#rwgt            1           9   4.0342648268280663E-002          12     1585814           0
</event>
<event>
      6   9999  3.45752E-01  2.80190E+01 -1.00000E+00  1.49783E-01
      21    -1     0     0   501   502  0.000000000E+00  0.000000000E+00  7.116805966E+01  7.116805966E+01  0.000000000E+00  0.00000E+00  9.000E+00
      21    -1     0     0   502   512  0.000000000E+00  0.000000000E+00 -6.253782717E+02  6.253782717E+02  0.000000000E+00  0.00000E+00  9.000E+00
      25     1     1     2     0     0  5.978943908E+01  4.612093992E+01 -2.338199434E+02  2.756785833E+02  1.249999889E+02  0.00000E+00  9.000E+00
       5     1     1     2   501     0  1.253577603E+00 -6.678196396E-01  5.983112423E+00  7.770300776E+00  4.750000000E+00  0.00000E+00  9.000E+00
      -5     1     1     2     0   503 -4.587214657E+01 -6.900967756E+01  2.494249770E+00  8.303838395E+01  4.750000000E+00  0.00000E+00  9.000E+00
      21     1     1     2   503   512 -1.517087012E+01  2.355655727E+01 -3.288676308E+02  3.300590634E+02  3.814697266E-06  0.00000E+00  9.000E+00
#rwgt            1           9   1.1470488383177515E-003          12     1589913           0
</event>
<event>
      6   9999  3.45752E-01  4.58816E+00 -1.00000E+00  2.36131E-01
      21    -1     0     0   511   502  0.000000000E+00  0.000000000E+00  4.720938122E+02  4.720938122E+02  0.000000000E+00  0.00000E+00  9.000E+00
      21    -1     0     0   502   503  0.000000000E+00  0.000000000E+00 -1.285199606E+02  1.285199606E+02  0.000000000E+00  0.00000E+00  9.000E+00
      25     1     1     2     0     0  2.841156291E+01 -2.289174513E+00 -7.869350423E+01  1.504183701E+02  1.249822436E+02  0.00000E+00  9.000E+00
       5     1     1     2   501     0 -1.765073225E+00  5.025883331E-02  4.566114286E+01  4.594148971E+01  4.750000000E+00  0.00000E+00  9.000E+00
      -5     1     1     2     0   503 -2.298852015E+01 -5.306479025E-01 -3.829649901E+00  2.379038386E+01  4.750000000E+00  0.00000E+00  9.000E+00
      21     1     1     2   511   501 -3.657969531E+00  2.769563582E+00  3.804358629E+02  3.804635291E+02  5.394796609E-06  0.00000E+00  9.000E+00
#rwgt            1           9  0.23325737841971175               12     1591565           0
</event>
<event>
      6   9999  3.45752E-01  2.02461E+01 -1.00000E+00  1.59806E-01
      21    -1     0     0   512   503  0.000000000E+00  0.000000000E+00  3.510732832E+01  3.510732832E+01  0.000000000E+00  0.00000E+00  9.000E+00
      21    -1     0     0   501   502  0.000000000E+00  0.000000000E+00 -9.577595983E+02  9.577595983E+02  0.000000000E+00  0.00000E+00  9.000E+00
      25     1     1     2     0     0 -5.674323732E+00 -3.308069364E+01 -4.223122218E+02  4.416994523E+02  1.249970529E+02  0.00000E+00  9.000E+00
       5     1     1     2   501     0  4.030011442E+00  2.888808086E+00 -4.575534963E+02  4.576050160E+02  4.750000000E+00  0.00000E+00  9.000E+00
      -5     1     1     2     0   503  1.911045061E+01  4.043101359E+01 -5.411502962E+01  7.036245528E+01  4.750000000E+00  0.00000E+00  9.000E+00
      21     1     1     2   512   502 -1.746613832E+01 -1.023912803E+01  1.132847778E+01  2.320000300E+01  4.460403188E-07  0.00000E+00  9.000E+00
#rwgt            1           9  0.47710169362343074               12     1596427           0
</event>
<event>
      6   9999  3.45752E-01  2.77880E+00 -1.00000E+00  2.85911E-01
      21    -1     0     0   501   511  0.000000000E+00  0.000000000E+00  9.114465815E+01  9.114465815E+01  0.000000000E+00  0.00000E+00  9.000E+00
      21    -1     0     0   502   503  0.000000000E+00  0.000000000E+00 -1.554548146E+03  1.554548146E+03  0.000000000E+00  0.00000E+00  9.000E+00
      25     1     1     2     0     0 -1.496151766E+01  6.474895407E+00 -1.442135972E+03  1.447634914E+03  1.249996379E+02  0.00000E+00  9.000E+00
       5     1     1     2   501     0 -2.723882619E-01 -2.612935875E+00  2.557844723E+00  6.000558214E+00  4.750000000E+00  0.00000E+00  9.000E+00
      -5     1     1     2     0   503  1.335532562E+01 -1.814361084E+00 -1.074451795E+02  1.083913545E+02  4.750000000E+00  0.00000E+00  9.000E+00
      21     1     1     2   502   511  1.878580302E+00 -2.047598447E+00  8.361981906E+01  8.366597793E+01  2.336015456E-06  0.00000E+00  9.000E+00
#rwgt            1           9   2.1267128809957271E-003          12     1598205           0
</event>
<event>
      6   9999  3.45752E-01  6.38802E+00 -1.00000E+00  2.10336E-01
      21    -1     0     0   501   502  0.000000000E+00  0.000000000E+00  9.950892374E+02  9.950892374E+02  0.000000000E+00  0.00000E+00  9.000E+00
      21    -1     0     0   502   512  0.000000000E+00  0.000000000E+00 -1.271415454E+01  1.271415454E+01  0.000000000E+00  0.00000E+00  9.000E+00
      25     1     1     2     0     0 -3.312653331E+00  5.481525213E+00  4.435208729E+02  4.608435362E+02  1.249999175E+02  0.00000E+00  9.000E+00
       5     1     1     2   501     0 -6.476243320E-01  1.232896087E+00  5.192116771E+02  5.192352719E+02  4.750000000E+00  0.00000E+00  9.000E+00
      -5     1     1     2     0   503  2.138756747E+00 -5.916048547E-01 -1.648533305E+00  5.495856511E+00  4.750000000E+00  0.00000E+00  9.000E+00
      21     1     1     2   503   512  1.821520916E+00 -6.122816445E+00  2.129106616E+01  2.222872731E+01  0.000000000E+00  0.00000E+00  9.000E+00
#rwgt            1           9   2.3814824409984499E-003          12     1604121           0
</event>
<event>
      6   9999  3.45752E-01  1.07064E+01 -1.00000E+00  1.84124E-01
      21    -1     0     0   501   502  0.000000000E+00  0.000000000E+00  1.285107608E+01  1.285107608E+01  0.000000000E+00  0.00000E+00  9.000E+00
       1    -1     0     0   502     0  0.000000000E+00  0.000000000E+00 -1.890275189E+03  1.890275189E+03  0.000000000E+00  0.00000E+00  9.000E+00
      25     1     1     2     0     0  1.540435956E+01  1.245321071E+01 -5.765018636E+02  5.902304775E+02  1.250009643E+02  0.00000E+00  9.000E+00
       5     1     1     2   501     0 -9.824546594E-01  8.976328226E-02  4.244119324E+00  6.445798898E+00  4.750000000E+00  0.00000E+00  9.000E+00
      -5     1     1     2     0   503 -2.402337313E+01 -7.805978540E+00 -2.682914070E+02  2.695197531E+02  4.750000000E+00  0.00000E+00  9.000E+00
       1     1     1     2   503     0  9.601468236E+00 -4.736995448E+00 -1.036874962E+03  1.036930236E+03  2.157918644E-05  0.00000E+00  9.000E+00
#rwgt            1           9   8.4202697930245028E-005          12     1608066           0
</event>
<event>
      6   9999  3.45752E-01  7.36312E+00 -1.00000E+00  2.02379E-01
      21    -1     0     0   501   502  0.000000000E+00  0.000000000E+00  7.212015448E+01  7.212015448E+01  0.000000000E+00  0.00000E+00  9.000E+00
      21    -1     0     0   502   511  0.000000000E+00  0.000000000E+00 -1.655455712E+03  1.655455712E+03  0.000000000E+00  0.00000E+00  9.000E+00
      25     1     1     2     0     0 -3.262425568E+01  6.813829232E+01 -2.679504904E+01  1.484923654E+02  1.249993560E+02  0.00000E+00  9.000E+00
       5     1     1     2   501     0 -4.477568851E-01  2.236267209E+00  9.628734612E+00  1.097617454E+01  4.750000000E+00  0.00000E+00  9.000E+00
      -5     1     1     2     0   503  2.998220025E+01 -6.369110802E+01 -1.407287251E+03  1.409054810E+03  4.750000000E+00  0.00000E+00  9.000E+00
      21     1     1     2   503   511  3.089812316E+00 -6.683451508E+00 -1.588819921E+02  1.590525161E+02  1.907348633E-06  0.00000E+00  9.000E+00
#rwgt            1           9   7.6225055165158044E-004          12     1610539           0
</event>
<event>
      6   9999  3.45752E-01  1.38858E+01 -1.00000E+00  1.73328E-01
      21    -1     0     0   501   502  0.000000000E+00  0.000000000E+00  7.045550138E+01  7.045550138E+01  0.000000000E+00  0.00000E+00  9.000E+00
      21    -1     0     0   512   503  0.000000000E+00  0.000000000E+00 -6.029877944E+02  6.029877944E+02  0.000000000E+00  0.00000E+00  9.000E+00
      25     1     1     2     0     0 -2.583585710E+01  1.849489130E+01 -5.375433142E+02  5.527998195E+02  1.250010933E+02  0.00000E+00  9.000E+00
       5     1     1     2   501     0 -7.372087788E-01  1.524257009E+00  5.355572458E+01  5.379261075E+01  4.750000000E+00  0.00000E+00  9.000E+00
      -5     1     1     2     0   503  1.425301749E+01 -2.642480573E+01 -2.432037059E+01  3.892893257E+01  4.750000000E+00  0.00000E+00  9.000E+00
      21     1     1     2   512   502  1.232004838E+01  6.405657423E+00 -2.422433283E+01  2.792193296E+01  0.000000000E+00  0.00000E+00  9.000E+00
#rwgt            1           9   1.3886028915661511E-004          12     1616347           0
</event>
<event>
      6   9999  3.45752E-01  5.99814E+00 -1.00000E+00  2.14077E-01
      21    -1     0     0   511   502  0.000000000E+00  0.000000000E+00  3.405993924E+01  3.405993924E+01  0.000000000E+00  0.00000E+00  9.000E+00
      21    -1     0     0   502   503  0.000000000E+00  0.000000000E+00 -7.869992040E+02  7.869992040E+02  0.000000000E+00  0.00000E+00  9.000E+00
      25     1     1     2     0     0  6.775744864E+00  1.059678732E+00 -7.554609502E+02  7.657634326E+02  1.250014151E+02  0.00000E+00  9.000E+00
       5     1     1     2   501     0 -3.603052625E-01  1.484928008E+00  2.101934356E+00  5.414375228E+00  4.750000000E+00  0.00000E+00  9.000E+00
      -5     1     1     2     0   503 -1.378861211E+00  7.127698211E-01 -2.411331032E+01  2.462566818E+01  4.750000000E+00  0.00000E+00  9.000E+00
      21     1     1     2   511   501 -5.036578390E+00 -3.257376560E+00  2.453306142E+01  2.525566722E+01  2.158972058E-06  0.00000E+00  9.000E+00
#rwgt            1           9   1.0397269924209171E-003          12     1619296           0
</event>
<event>
      6   9999  3.45752E-01  1.13601E+01 -1.00000E+00  1.81543E-01
      21    -1     0     0   501   502  0.000000000E+00  0.000000000E+00  1.031796793E+01  1.031796793E+01  0.000000000E+00  0.00000E+00  9.000E+00
       2    -1     0     0   502     0  0.000000000E+00  0.000000000E+00 -3.835769969E+03  3.835769969E+03  0.000000000E+00  0.00000E+00  9.000E+00
      25     1     1     2     0     0  3.833164773E+01  1.836301134E+01 -5.221588161E+02  5.385921787E+02  1.250007610E+02  0.00000E+00  9.000E+00
       5     1     1     2   501     0 -2.394073463E+01 -1.983206325E+01 -1.371920632E+02  1.407504679E+02  4.750000000E+00  0.00000E+00  9.000E+00
      -5     1     1     2     0   503 -8.265153281E+00 -8.097931443E+00 -1.252620319E+02  1.258849808E+02  4.750000000E+00  0.00000E+00  9.000E+00
       2     1     1     2   503     0 -6.125759824E+00  9.566983352E+00 -3.040839090E+03  3.040860310E+03  6.103515625E-05  0.00000E+00  9.000E+00
#rwgt            1           9   4.9779672149163475E-005          12     1622618           0
</event>
<event>
      6   9999 -3.45752E-01  6.31518E+00 -1.00000E+00  2.11007E-01
      21    -1     0     0   502   503  0.000000000E+00  0.000000000E+00  8.004158287E+00  8.004158287E+00  0.000000000E+00  0.00000E+00  9.000E+00
      21    -1     0     0   511   502  0.000000000E+00  0.000000000E+00 -8.325050707E+02  8.325050707E+02  0.000000000E+00  0.00000E+00  9.000E+00
      25     1     1     2     0     0  1.736997351E+00  7.580159168E+00 -5.293302154E+02  5.439453688E+02  1.250024453E+02  0.00000E+00  9.000E+00
       5     1     1     2   501     0  3.711113909E+00 -8.147285190E+00 -1.387424278E+02  1.391120929E+02  4.750000000E+00  0.00000E+00  9.000E+00
      -5     1     1     2     0   503 -4.598917004E+00  6.824952843E+00 -5.405035555E+01  5.487926252E+01  4.750000000E+00  0.00000E+00  9.000E+00
      21     1     1     2   511   501 -8.491942556E-01 -6.257826820E+00 -1.023779136E+02  1.025725047E+02  0.000000000E+00  0.00000E+00  9.000E+00
#rwgt            1           9  -2.4748598787007563E-002          12     1624808           0
</event>
<event>
      6   9999  3.45752E-01  2.34738E+01 -1.00000E+00  1.55077E-01
      21    -1     0     0   502   503  0.000000000E+00  0.000000000E+00  4.580057704E+02  4.580057704E+02  0.000000000E+00  0.00000E+00  9.000E+00
      21    -1     0     0   501   512  0.000000000E+00  0.000000000E+00 -5.409932639E+01  5.409932639E+01  0.000000000E+00  0.00000E+00  9.000E+00
      25     1     1     2     0     0  3.304363279E+01 -1.818154311E+01  3.779905351E+02  3.999058736E+02  1.250016517E+02  0.00000E+00  9.000E+00
       5     1     1     2   501     0 -2.250774593E+01 -4.491503494E+00  2.413681097E+01  3.364402435E+01  4.750000000E+00  0.00000E+00  9.000E+00
      -5     1     1     2     0   503 -1.222571457E+01 -7.398589393E-01  3.528135263E+01  3.764773342E+01  4.750000000E+00  0.00000E+00  9.000E+00
      21     1     1     2   502   512  1.689827717E+00  2.341290554E+01 -3.350225466E+01  4.090746546E+01  9.536743164E-07  0.00000E+00  9.000E+00
#rwgt            1           9  0.16372009302353824               12     1628064           0
</event>
<event>
      6   9999  3.45752E-01  5.20848E+00 -1.00000E+00  2.22990E-01
      21    -1     0     0   511   502  0.000000000E+00  0.000000000E+00  2.987161254E+03  2.987161254E+03  0.000000000E+00  0.00000E+00  9.000E+00
      21    -1     0     0   502   503  0.000000000E+00  0.000000000E+00 -1.747615766E+01  1.747615766E+01  0.000000000E+00  0.00000E+00  9.000E+00
      25     1     1     2     0     0 -4.482947052E+00  2.807199099E+00  2.425580253E+02  2.729289649E+02  1.250113876E+02  0.00000E+00  9.000E+00
       5     1     1     2   501     0  8.829289751E+00 -1.977536871E+00  2.615487042E+03  2.615507006E+03  4.750000000E+00  0.00000E+00  9.000E+00
      -5     1     1     2     0   503  2.299198515E-01  1.657528758E+00  6.369867944E-01  5.076269979E+00  4.750000000E+00  0.00000E+00  9.000E+00
      21     1     1     2   511   501 -4.576262550E+00 -2.487190986E+00  1.110030426E+02  1.111251716E+02  1.348699152E-06  0.00000E+00  9.000E+00
#rwgt            1           9   3.6596981395659858E-003          12     1628943           0
</event>
<event>
      6   9999  3.45752E-01  2.38025E+00 -1.00000E+00  3.06143E-01
      21    -1     0     0   501   502  0.000000000E+00  0.000000000E+00  8.964829591E+01  8.964829591E+01  0.000000000E+00  0.00000E+00  9.000E+00
      21    -1     0     0   502   512  0.000000000E+00  0.000000000E+00 -1.668183042E+03  1.668183042E+03  0.000000000E+00  0.00000E+00  9.000E+00
      25     1     1     2     0     0 -9.014947400E+01  9.468074676E+01 -4.391159681E+01  1.861318032E+02  1.250017934E+02  0.00000E+00  9.000E+00
       5     1     1     2   501     0 -3.601483948E+00  7.051452652E-01  1.507852533E+01  1.622936667E+01  4.750000000E+00  0.00000E+00  9.000E+00
      -5     1     1     2     0   503  9.213501950E+01 -9.363822123E+01 -1.520420817E+03  1.526092723E+03  4.750000000E+00  0.00000E+00  9.000E+00
      21     1     1     2   503   512  1.615938449E+00 -1.747670799E+00 -2.928085780E+01  2.937744448E+01  0.000000000E+00  0.00000E+00  9.000E+00
#rwgt            1           9   2.3793262129069548E-003          12     1634365           0
</event>
<event>
      6   9999 -3.45752E-01  3.10162E+00 -1.00000E+00  2.73182E-01
      21    -1     0     0   511   502  0.000000000E+00  0.000000000E+00  4.655822670E+02  4.655822670E+02  0.000000000E+00  0.00000E+00  9.000E+00
      21    -1     0     0   502   503  0.000000000E+00  0.000000000E+00 -3.283955822E+02  3.283955822E+02  0.000000000E+00  0.00000E+00  9.000E+00
      25     1     1     2     0     0 -3.918614948E+00 -1.063279183E+00 -3.054711425E+02  3.300836699E+02  1.250044965E+02  0.00000E+00  9.000E+00
       5     1     1     2   501     0 -2.103248238E-02  1.876070155E-01  1.074107053E+01  1.174600932E+01  4.750000000E+00  0.00000E+00  9.000E+00
      -5     1     1     2     0   503  1.171020872E+00 -5.224581307E-01 -9.511689386E+00  1.070882754E+01  4.750000000E+00  0.00000E+00  9.000E+00
      21     1     1     2   511   501  2.768626559E+00  1.398130298E+00  4.414284461E+02  4.414393425E+02  0.000000000E+00  0.00000E+00  9.000E+00
#rwgt            1           9  -2.2996007625411203               12     1646295           0
</event>
<event>
      6   9999  3.45752E-01  2.54217E+01 -1.00000E+00  1.52646E-01
      21    -1     0     0   501   502  0.000000000E+00  0.000000000E+00  1.506590412E+03  1.506590412E+03  0.000000000E+00  0.00000E+00  9.000E+00
      21    -1     0     0   512   503  0.000000000E+00  0.000000000E+00 -1.577042101E+01  1.577042101E+01  0.000000000E+00  0.00000E+00  9.000E+00
      25     1     1     2     0     0  2.205478357E+01  2.123667200E-01  7.043712320E+02  7.157164125E+02  1.249987682E+02  0.00000E+00  9.000E+00
       5     1     1     2   501     0  4.782718494E+00  1.749866898E+00  6.353220572E+02  6.353602248E+02  4.750000000E+00  0.00000E+00  9.000E+00
      -5     1     1     2     0   503 -1.477454754E+00 -1.924977259E-01  1.450641879E+02  1.451495816E+02  4.750000000E+00  0.00000E+00  9.000E+00
      21     1     1     2   512   502 -2.536004731E+01 -1.769735892E+00  6.062513525E+00  2.613461373E+01  1.233110479E-06  0.00000E+00  9.000E+00
#rwgt            1           9   4.9579993274512485E-002          12     1652061           0
</event>
<event>
      6   9999  3.45752E-01  9.83858E+00 -1.00000E+00  1.87941E-01
      21    -1     0     0   501   502  0.000000000E+00  0.000000000E+00  3.320986916E+03  3.320986916E+03  0.000000000E+00  0.00000E+00  9.000E+00
      21    -1     0     0   502   511  0.000000000E+00  0.000000000E+00 -1.914557811E+01  1.914557811E+01  0.000000000E+00  0.00000E+00  9.000E+00
      25     1     1     2     0     0  1.218319557E+02 -8.135500412E+01  8.909687931E+02  9.115432425E+02  1.249961222E+02  0.00000E+00  9.000E+00
       5     1     1     2   501     0  3.108236666E+00  4.402219670E+00  1.446810692E+03  1.446828525E+03  4.750000000E+00  0.00000E+00  9.000E+00
      -5     1     1     2     0   503 -1.153741509E+02  7.465311317E+01  9.619119463E+02  9.716899901E+02  4.750000000E+00  0.00000E+00  9.000E+00
      21     1     1     2   503   511 -9.566041402E+00  2.299671282E+00  2.149906952E+00  1.007073662E+01  7.090197357E-07  0.00000E+00  9.000E+00
#rwgt            1           9   1.5128526253599516E-003          12     1653142           0
</event>
<event>
      6   9999 -3.45752E-01  3.48771E+01 -1.00000E+00  1.43727E-01
      21    -1     0     0   501   502  0.000000000E+00  0.000000000E+00  3.788739903E+01  3.788739903E+01  0.000000000E+00  0.00000E+00  9.000E+00
       1    -1     0     0   502     0  0.000000000E+00  0.000000000E+00 -1.292750716E+03  1.292750716E+03  0.000000000E+00  0.00000E+00  9.000E+00
      25     1     1     2     0     0 -5.250326518E-01 -2.537231834E+01 -7.075581953E+02  7.189630765E+02  1.250011014E+02  0.00000E+00  9.000E+00
       5     1     1     2   501     0 -1.748478613E+01 -5.042663827E+00  2.302483947E+01  2.972964745E+01  4.750000000E+00  0.00000E+00  9.000E+00
      -5     1     1     2     0   503 -1.638732363E+01  2.464883695E+01 -3.765924555E+01  4.813409201E+01  4.750000000E+00  0.00000E+00  9.000E+00
       1     1     1     2   503     0  3.439714241E+01  5.766145213E+00 -5.326707155E+02  5.338112991E+02  0.000000000E+00  0.00000E+00  9.000E+00
#rwgt            1           9  -3.1154176384918055E-004          12     1656831           0
</event>
<event>
      6   9999  3.45752E-01  6.67437E+00 -1.00000E+00  2.07811E-01
      21    -1     0     0   501   511  0.000000000E+00  0.000000000E+00  2.851963062E+01  2.851963062E+01  0.000000000E+00  0.00000E+00  9.000E+00
      21    -1     0     0   502   503  0.000000000E+00  0.000000000E+00 -1.081995029E+03  1.081995029E+03  0.000000000E+00  0.00000E+00  9.000E+00
      25     1     1     2     0     0  3.831675978E+01 -7.688288838E+01 -5.673351554E+02  5.872585862E+02  1.249972634E+02  0.00000E+00  9.000E+00
       5     1     1     2   501     0  2.160407758E+00  3.982875016E+00  1.126719496E+01  1.304004745E+01  4.750000000E+00  0.00000E+00  9.000E+00
      -5     1     1     2     0   503 -4.479237486E+01  7.799179654E+01 -4.949904988E+02  5.031175146E+02  4.750000000E+00  0.00000E+00  9.000E+00
      21     1     1     2   502   511  4.315207319E+00 -5.091783181E+00 -2.416939329E+00  7.098511526E+00  1.908279728E-07  0.00000E+00  9.000E+00
#rwgt            1           9   8.3511227455740522E-006          12     1658114           0
</event>
<event>
      6   9999  3.45752E-01  6.86363E+00 -1.00000E+00  2.06233E-01
      21    -1     0     0   501   502  0.000000000E+00  0.000000000E+00  1.392023099E+01  1.392023099E+01  0.000000000E+00  0.00000E+00  9.000E+00
      21    -1     0     0   512   503  0.000000000E+00  0.000000000E+00 -1.034165031E+03  1.034165031E+03  0.000000000E+00  0.00000E+00  9.000E+00
      25     1     1     2     0     0 -8.102996842E+00  1.860646725E+00 -4.630431265E+02  4.796886603E+02  1.249926129E+02  0.00000E+00  9.000E+00
       5     1     1     2   501     0 -1.270888764E+00  1.410252351E+00  3.932865864E+00  6.452433948E+00  4.750000000E+00  0.00000E+00  9.000E+00
      -5     1     1     2     0   503  9.040065778E+00  3.584609827E+00 -7.657853229E+01  7.733955214E+01  4.750000000E+00  0.00000E+00  9.000E+00
      21     1     1     2   512   502  3.338198281E-01 -6.855508903E+00 -4.845560069E+02  4.846046154E+02  7.629394531E-06  0.00000E+00  9.000E+00
#rwgt            1           9   16.624264341231161               12     1662868           0
</event>
<event>
      6   9999  3.45752E-01  1.47706E+01 -1.00000E+00  1.70954E-01
      21    -1     0     0   501   511  0.000000000E+00  0.000000000E+00  2.476204641E+01  2.476204641E+01  0.000000000E+00  0.00000E+00  9.000E+00
      21    -1     0     0   502   503  0.000000000E+00  0.000000000E+00 -1.018521894E+03  1.018521894E+03  0.000000000E+00  0.00000E+00  9.000E+00
      25     1     1     2     0     0  6.748406086E-01 -4.669530380E+01 -5.769053983E+02  5.921386276E+02  1.250096355E+02  0.00000E+00  9.000E+00
       5     1     1     2   501     0 -2.225884407E+00 -6.244391382E+00  1.113108263E+01  1.379893060E+01  4.750000000E+00  0.00000E+00  9.000E+00
      -5     1     1     2     0   503 -6.353411276E-01  3.833181788E+01 -4.173770461E+02  4.191609393E+02  4.750000000E+00  0.00000E+00  9.000E+00
      21     1     1     2   502   511  2.186384926E+00  1.460787731E+01 -1.060848567E+01  1.818544271E+01  6.078504936E-07  0.00000E+00  9.000E+00
#rwgt            1           9   2.1418859688099269E-003          12     1665977           0
</event>
<event>
      6   9999 -3.45752E-01  6.11793E+00 -1.00000E+00  2.12887E-01
      21    -1     0     0   501   502  0.000000000E+00  0.000000000E+00  1.477499854E+01  1.477499854E+01  0.000000000E+00  0.00000E+00  9.000E+00
      21    -1     0     0   502   512  0.000000000E+00  0.000000000E+00 -9.026438995E+02  9.026438995E+02  0.000000000E+00  0.00000E+00  9.000E+00
      25     1     1     2     0     0  2.429248462E+01 -6.492412836E+01 -4.726415010E+02  4.937831513E+02  1.250061790E+02  0.00000E+00  9.000E+00
       5     1     1     2   501     0 -9.080615769E+00  1.225871881E+01 -4.613428574E+01  4.882282858E+01  4.750000000E+00  0.00000E+00  9.000E+00
      -5     1     1     2     0   503 -9.264826005E+00  5.410130524E+01 -2.717969951E+02  2.773246424E+02  4.750000000E+00  0.00000E+00  9.000E+00
      21     1     1     2   503   512 -5.947042843E+00 -1.435895696E+00 -9.729611914E+01  9.748827578E+01  1.348699152E-06  0.00000E+00  9.000E+00
#rwgt            1           9  -1.1816909365104501E-003          12     1668686           0
</event>
<event>
      6   9999 -3.45752E-01  6.27918E+01 -1.00000E+00  1.29699E-01
      21    -1     0     0   501   511  0.000000000E+00  0.000000000E+00  9.166701190E+01  9.166701190E+01  0.000000000E+00  0.00000E+00  9.000E+00
      21    -1     0     0   502   503  0.000000000E+00  0.000000000E+00 -1.577499560E+03  1.577499560E+03  0.000000000E+00  0.00000E+00  9.000E+00
      25     1     1     2     0     0 -2.286922620E+02 -2.001538831E+02 -7.577790495E+02  8.259636872E+02  1.250007885E+02  0.00000E+00  9.000E+00
       5     1     1     2   501     0 -2.856206074E+01  4.627794062E+01 -1.662943870E+01  5.706610056E+01  4.750000000E+00  0.00000E+00  9.000E+00
      -5     1     1     2     0   503  2.029730352E+02  1.223108737E+02 -6.705619528E+02  7.112200067E+02  4.750000000E+00  0.00000E+00  9.000E+00
      21     1     1     2   502   511  5.428128748E+01  3.156506875E+01 -4.086210692E+01  7.491677728E+01  4.768371582E-07  0.00000E+00  9.000E+00
#rwgt            1           9  -2.3948417453226855E-003          12     1672671           0
</event>
<event>
      6   9999 -3.45752E-01  1.72291E+01 -1.00000E+00  1.65317E-01
      21    -1     0     0   501   512  0.000000000E+00  0.000000000E+00  6.259879417E+01  6.259879417E+01  0.000000000E+00  0.00000E+00  9.000E+00
      21    -1     0     0   502   503  0.000000000E+00  0.000000000E+00 -9.003331897E+02  9.003331897E+02  0.000000000E+00  0.00000E+00  9.000E+00
      25     1     1     2     0     0  7.948006743E+00  6.379676623E+01 -7.813533605E+02  7.938976745E+02  1.250089814E+02  0.00000E+00  9.000E+00
       5     1     1     2   501     0 -2.809080517E+00  9.423903205E-01  6.888846074E+00  8.876808723E+00  4.750000000E+00  0.00000E+00  9.000E+00
      -5     1     1     2     0   503 -1.160290837E+01 -4.876861197E+01 -1.042109555E+02  1.157388904E+02  4.750000000E+00  0.00000E+00  9.000E+00
      21     1     1     2   502   512  6.463982147E+00 -1.597054458E+01  4.094107444E+01  4.441861024E+01  3.015782986E-06  0.00000E+00  9.000E+00
#rwgt            1           9  -7.3300478029045458E-005          12     1674032           0
</event>
<event>
      6   9999  3.45752E-01  6.18433E+00 -1.00000E+00  2.12244E-01
      21    -1     0     0   501   502  0.000000000E+00  0.000000000E+00  7.865636297E+00  7.865636297E+00  0.000000000E+00  0.00000E+00  9.000E+00
      21    -1     0     0   511   503  0.000000000E+00  0.000000000E+00 -6.985003891E+02  6.985003891E+02  0.000000000E+00  0.00000E+00  9.000E+00
      25     1     1     2     0     0  2.364931036E+00 -4.581088843E+00 -6.286535269E+02  6.409806848E+02  1.249976085E+02  0.00000E+00  9.000E+00
       5     1     1     2   501     0  5.031070060E-01  2.948929956E+00 -7.730917233E+00  9.553998420E+00  4.750000000E+00  0.00000E+00  9.000E+00
      -5     1     1     2     0   503  3.249834007E+00  7.279681246E-01 -1.474936582E+01  1.584921610E+01  4.750000000E+00  0.00000E+00  9.000E+00
      21     1     1     2   511   502 -6.117872049E+00  9.041907624E-01 -3.950094287E+01  3.998212610E+01  4.768371582E-07  0.00000E+00  9.000E+00
#rwgt            1           9   2.3946212009983564E-004          12     1675846           0
</event>
<event>
      6   9999  3.45752E-01  1.51626E+01 -1.00000E+00  1.69967E-01
      21    -1     0     0   501   502  0.000000000E+00  0.000000000E+00  8.789675933E+02  8.789675933E+02  0.000000000E+00  0.00000E+00  9.000E+00
      -3    -1     0     0     0   503  0.000000000E+00  0.000000000E+00 -2.288546875E+02  2.288546875E+02  0.000000000E+00  0.00000E+00  9.000E+00
      25     1     1     2     0     0  5.153270390E+00 -1.480791025E+01  1.062536542E+02  1.648244877E+02  1.250257665E+02  0.00000E+00  9.000E+00
       5     1     1     2   501     0  2.568574879E+00  3.136574293E+00  7.180110917E+02  7.180382483E+02  4.750000000E+00  0.00000E+00  9.000E+00
      -5     1     1     2     0   503  5.423482695E+00  4.114572253E+00  2.442892575E+01  2.580075159E+01  4.750000000E+00  0.00000E+00  9.000E+00
      -3     1     1     2     0   502 -1.314532796E+01  7.556763706E+00 -1.985807659E+02  1.991587932E+02  0.000000000E+00  0.00000E+00  9.000E+00
#rwgt            1           9  0.12441967391793753               12     1679185           0
</event>
<event>
      6   9999  3.45752E-01  6.51243E+00 -1.00000E+00  2.09217E-01
       2    -1     0     0   501     0  0.000000000E+00  0.000000000E+00  2.261284575E+03  2.261284575E+03  0.000000000E+00  0.00000E+00  9.000E+00
      21    -1     0     0   502   503  0.000000000E+00  0.000000000E+00 -9.768605823E+02  9.768605823E+02  0.000000000E+00  0.00000E+00  9.000E+00
      25     1     1     2     0     0  7.872064906E+01  1.584417084E+01 -7.510873902E+02  7.656402602E+02  1.249990479E+02  0.00000E+00  9.000E+00
       5     1     1     2   501     0  5.995208129E-01 -3.430371268E+00  3.387241303E+00  6.794319383E+00  4.750000000E+00  0.00000E+00  9.000E+00
      -5     1     1     2     0   503 -7.615928184E+01 -1.810770173E+01 -2.096955293E+02  2.238814476E+02  4.750000000E+00  0.00000E+00  9.000E+00
       2     1     1     2   502     0 -3.160888039E+00  5.693902158E+00  2.241819671E+03  2.241829130E+03  6.103515625E-05  0.00000E+00  9.000E+00
#rwgt            1           9   1.4038580923874602E-002          12     1681757           0
</event>
<event>
      6   9999  3.45752E-01  1.03377E+01 -1.00000E+00  1.85687E-01
      21    -1     0     0   511   502  0.000000000E+00  0.000000000E+00  1.220852648E+01  1.220852648E+01  0.000000000E+00  0.00000E+00  9.000E+00
      21    -1     0     0   502   503  0.000000000E+00  0.000000000E+00 -5.464788078E+02  5.464788078E+02  0.000000000E+00  0.00000E+00  9.000E+00
      25     1     1     2     0     0 -2.732709215E+00 -5.412150847E+00 -5.048961306E+02  5.201693155E+02  1.249770179E+02  0.00000E+00  9.000E+00
       5     1     1     2   501     0 -8.201218823E-01 -1.014042130E+00 -1.224045295E+00  5.075595357E+00  4.750000000E+00  0.00000E+00  9.000E+00
      -5     1     1     2     0   503 -4.418708732E-01 -3.108500656E+00 -1.829237226E+01  1.915806381E+01  4.750000000E+00  0.00000E+00  9.000E+00
      21     1     1     2   511   501  3.994701971E+00  9.534693633E+00 -9.857733199E+00  1.428435964E+01  2.384185791E-07  0.00000E+00  9.000E+00
#rwgt            1           9   3.1046072118179105E-005          12     1685512           0
</event>
<event>
      6   9999  3.45752E-01  3.40846E+01 -1.00000E+00  1.44339E-01
      21    -1     0     0   501   502  0.000000000E+00  0.000000000E+00  1.643918336E+01  1.643918336E+01  0.000000000E+00  0.00000E+00  9.000E+00
       2    -1     0     0   502     0  0.000000000E+00  0.000000000E+00 -4.473748613E+03  4.473748613E+03  0.000000000E+00  0.00000E+00  9.000E+00
      25     1     1     2     0     0 -8.481015921E+00 -1.381545475E+01 -7.046830573E+02  7.158675434E+02  1.250013357E+02  0.00000E+00  9.000E+00
       5     1     1     2   501     0 -1.009713011E+01  1.831096120E+00  7.022181789E+00  1.331084094E+01  4.750000000E+00  0.00000E+00  9.000E+00
      -5     1     1     2     0   503 -1.524760872E+01  1.617721394E+01 -2.152600878E+02  2.164570620E+02  4.750000000E+00  0.00000E+00  9.000E+00
       2     1     1     2   503     0  3.382575475E+01 -4.192855309E+00 -3.544388467E+03  3.544552350E+03  4.315837288E-05  0.00000E+00  9.000E+00
#rwgt            1           9   3.9707271990871180E-004          12     1687407           0
</event>
<event>
      6   9999  3.45752E-01  1.40559E+01 -1.00000E+00  1.72855E-01
      21    -1     0     0   501   511  0.000000000E+00  0.000000000E+00  4.660744311E+01  4.660744311E+01  0.000000000E+00  0.00000E+00  9.000E+00
      21    -1     0     0   502   503  0.000000000E+00  0.000000000E+00 -1.200083287E+03  1.200083287E+03  0.000000000E+00  0.00000E+00  9.000E+00
      25     1     1     2     0     0 -5.286044189E+01  4.896643663E+00 -1.044916853E+03  1.053705193E+03  1.250008047E+02  0.00000E+00  9.000E+00
       5     1     1     2   501     0  2.277040307E+01 -1.702306578E+01  3.131512862E+01  4.256143566E+01  4.750000000E+00  0.00000E+00  9.000E+00
      -5     1     1     2     0   503  1.842743052E+01  1.997193728E+01 -1.308371501E+02  1.337137645E+02  4.750000000E+00  0.00000E+00  9.000E+00
      21     1     1     2   502   511  1.166260830E+01 -7.845515157E+00 -9.036969697E+00  1.671033697E+01  2.384185791E-07  0.00000E+00  9.000E+00
#rwgt            1           9   2.5398995137084928E-003          12     1688916           0
</event>
<event>
      6   9999  3.45752E-01  5.14099E+00 -1.00000E+00  2.23853E-01
      21    -1     0     0   501   502  0.000000000E+00  0.000000000E+00  2.213986216E+01  2.213986216E+01  0.000000000E+00  0.00000E+00  9.000E+00
       2    -1     0     0   502     0  0.000000000E+00  0.000000000E+00 -3.683078884E+03  3.683078884E+03  0.000000000E+00  0.00000E+00  9.000E+00
      25     1     1     2     0     0  3.870847248E+00 -1.098517934E+01 -1.523574299E+03  1.528737770E+03  1.249994704E+02  0.00000E+00  9.000E+00
       5     1     1     2   501     0 -3.522722920E-01  3.259051216E+00  1.896733708E+01  1.982593974E+01  4.750000000E+00  0.00000E+00  9.000E+00
      -5     1     1     2     0   503 -5.138716525E-01  3.554614395E+00 -5.583079311E+01  5.614747819E+01  4.750000000E+00  0.00000E+00  9.000E+00
       2     1     1     2   503     0 -3.004703303E+00  4.171513726E+00 -2.100501267E+03  2.100507558E+03  0.000000000E+00  0.00000E+00  9.000E+00
#rwgt            1           9  0.82634019542802917               12     1692126           0
</event>
<event>
      6   9999  3.45752E-01  6.34214E+00 -1.00000E+00  2.10757E-01
      21    -1     0     0   501   511  0.000000000E+00  0.000000000E+00  2.943325628E+01  2.943325628E+01  0.000000000E+00  0.00000E+00  9.000E+00
      21    -1     0     0   502   503  0.000000000E+00  0.000000000E+00 -1.039987616E+03  1.039987616E+03  0.000000000E+00  0.00000E+00  9.000E+00
      25     1     1     2     0     0  1.562083487E+01 -2.911965185E+01 -1.677663965E+02  2.118068741E+02  1.249984941E+02  0.00000E+00  9.000E+00
       5     1     1     2   501     0  3.115661223E-01  9.326446027E-01 -4.094136099E-01  4.867958392E+00  4.750000000E+00  0.00000E+00  9.000E+00
      -5     1     1     2     0   503 -1.696868133E+01  3.444391045E+01 -8.449987082E+02  8.458839746E+02  4.750000000E+00  0.00000E+00  9.000E+00
      21     1     1     2   502   511  1.036280334E+00 -6.256903195E+00  2.620158221E+00  6.862065551E+00  1.332800375E-07  0.00000E+00  9.000E+00
#rwgt            1           9  0.11827048322589837               12     1697604           0
</event>
<event>
      6   9999  3.45752E-01  2.05647E+01 -1.00000E+00  1.59293E-01
      21    -1     0     0   501   502  0.000000000E+00  0.000000000E+00  3.204043164E+01  3.204043164E+01  0.000000000E+00  0.00000E+00  9.000E+00
       2    -1     0     0   502     0  0.000000000E+00  0.000000000E+00 -2.906768004E+03  2.906768004E+03  0.000000000E+00  0.00000E+00  9.000E+00
      25     1     1     2     0     0  2.230814647E+01 -2.525619477E+01 -8.176742986E+02  8.278599220E+02  1.250010524E+02  0.00000E+00  9.000E+00
       5     1     1     2   501     0  5.819426007E-01 -7.507203153E+00  2.565092949E+01  2.715196936E+01  4.750000000E+00  0.00000E+00  9.000E+00
      -5     1     1     2     0   503 -4.054706999E+00  2.450890592E+01 -3.286422871E+02  3.296140812E+02  4.750000000E+00  0.00000E+00  9.000E+00
       2     1     1     2   503     0 -1.883538208E+01  8.254492003E+00 -1.754061916E+03  1.754182463E+03  0.000000000E+00  0.00000E+00  9.000E+00
#rwgt            1           9   4.9344986341171081E-004          12     1702252           0
</event>
<event>
      6   9999 -3.45752E-01  6.56356E+00 -1.00000E+00  2.08767E-01
      21    -1     0     0   511   502  0.000000000E+00  0.000000000E+00  3.630262719E+01  3.630262719E+01  0.000000000E+00  0.00000E+00  9.000E+00
      21    -1     0     0   502   503  0.000000000E+00  0.000000000E+00 -5.484085270E+02  5.484085270E+02  0.000000000E+00  0.00000E+00  9.000E+00
      25     1     1     2     0     0  2.157905140E+01  3.262245643E+01 -1.794571024E+02  2.221706080E+02  1.250001894E+02  0.00000E+00  9.000E+00
       5     1     1     2   501     0 -2.496729120E-01  7.814221891E-01  1.049970642E+01  1.155332385E+01  4.750000000E+00  0.00000E+00  9.000E+00
      -5     1     1     2     0   503 -1.517759425E+01 -3.111567199E+01 -3.426254802E+02  3.444028551E+02  4.750000000E+00  0.00000E+00  9.000E+00
      21     1     1     2   511   501 -6.151784233E+00 -2.288206632E+00 -5.230236918E-01  6.584367291E+00  9.305772183E-08  0.00000E+00  9.000E+00
#rwgt            1           9  -2.2500057608972071E-002          12     1704383           0
</event>
<event>
      6   9999 -3.45752E-01  1.97629E+01 -1.00000E+00  1.60607E-01
      21    -1     0     0   502   503  0.000000000E+00  0.000000000E+00  1.165683825E+01  1.165683825E+01  0.000000000E+00  0.00000E+00  9.000E+00
      21    -1     0     0   512   502  0.000000000E+00  0.000000000E+00 -1.398103599E+03  1.398103599E+03  0.000000000E+00  0.00000E+00  9.000E+00
      25     1     1     2     0     0 -1.267539783E+01 -7.142169030E+01 -5.501648697E+02  5.688327542E+02  1.250103791E+02  0.00000E+00  9.000E+00
       5     1     1     2   501     0  1.874902386E+01  2.111208684E+01 -2.747098922E+02  2.761979968E+02  4.750000000E+00  0.00000E+00  9.000E+00
      -5     1     1     2     0   503 -1.828293297E+01  3.476915015E+01 -3.466905329E+02  3.489413239E+02  4.750000000E+00  0.00000E+00  9.000E+00
      21     1     1     2   512   501  1.220930694E+01  1.554045331E+01 -2.148814660E+02  2.157883623E+02  2.697398305E-06  0.00000E+00  9.000E+00
#rwgt            1           9  -2.1401715335300244E-004          12     1708318           0
</event>
<event>
      6   9999  3.45752E-01  1.14383E+01 -1.00000E+00  1.81249E-01
      21    -1     0     0   501   511  0.000000000E+00  0.000000000E+00  3.993757111E+02  3.993757111E+02  0.000000000E+00  0.00000E+00  9.000E+00
      21    -1     0     0   502   503  0.000000000E+00  0.000000000E+00 -2.794669162E+01  2.794669162E+01  0.000000000E+00  0.00000E+00  9.000E+00
      25     1     1     2     0     0  6.639047720E-01  1.191293486E+01  1.227865635E+02  1.756179895E+02  1.249911169E+02  0.00000E+00  9.000E+00
       5     1     1     2   501     0 -1.739165095E+00  6.539241554E-01  1.727035795E+02  1.727788795E+02  4.750000000E+00  0.00000E+00  9.000E+00
      -5     1     1     2     0   503 -1.278374475E+00 -1.373380102E+00  5.276288710E+00  7.343169395E+00  4.750000000E+00  0.00000E+00  9.000E+00
      21     1     1     2   502   511  2.353634797E+00 -1.119347892E+01  7.066258777E+01  7.158236429E+01  0.000000000E+00  0.00000E+00  9.000E+00
#rwgt            1           9   1.8580692471961320E-002          12     1709907           0
</event>
<event>
      6   9999 -3.45752E-01  9.73449E+00 -1.00000E+00  1.88433E-01
      21    -1     0     0   501   502  0.000000000E+00  0.000000000E+00  1.285527923E+01  1.285527923E+01  0.000000000E+00  0.00000E+00  9.000E+00
      21    -1     0     0   512   503  0.000000000E+00  0.000000000E+00 -2.029913579E+03  2.029913579E+03  0.000000000E+00  0.00000E+00  9.000E+00
      25     1     1     2     0     0 -1.548265014E+00 -4.235773407E+00 -8.189880147E+02  8.284869881E+02  1.250159282E+02  0.00000E+00  9.000E+00
       5     1     1     2   501     0  9.000327979E-01 -3.254122769E+00  6.756613023E+00  8.922650591E+00  4.750000000E+00  0.00000E+00  9.000E+00
      -5     1     1     2     0   503  6.302013675E-01 -2.244576515E+00 -2.820386147E+01  2.869591573E+01  4.750000000E+00  0.00000E+00  9.000E+00
      21     1     1     2   512   502  1.803084851E-02  9.734472691E+00 -1.176623036E+03  1.176663303E+03  1.525878906E-05  0.00000E+00  9.000E+00
#rwgt            1           9  -1.0473930106906496E-004          12     1712070           0
</event>
<event>
      6   9999  3.45752E-01  9.76761E+01 -1.00000E+00  1.20871E-01
      -1    -1     0     0     0   502  0.000000000E+00  0.000000000E+00  8.317809103E+01  8.317809103E+01  0.000000000E+00  0.00000E+00  9.000E+00
      21    -1     0     0   502   503  0.000000000E+00  0.000000000E+00 -1.178730911E+03  1.178730911E+03  0.000000000E+00  0.00000E+00  9.000E+00
      25     1     1     2     0     0  7.699503066E+01  8.999916663E+01 -2.456530868E+02  2.999973218E+02  1.249994771E+02  0.00000E+00  9.000E+00
       5     1     1     2   501     0 -6.924919416E+01 -6.610050238E+01 -4.835563652E+02  4.929645506E+02  4.750000000E+00  0.00000E+00  9.000E+00
      -5     1     1     2     0   503 -3.063152618E+00  7.366511695E+01 -3.638122342E+02  3.712382477E+02  4.750000000E+00  0.00000E+00  9.000E+00
      -1     1     1     2     0   501 -4.682683883E+00 -9.756378120E+01 -2.531133615E+00  9.770888173E+01  1.414590393E-06  0.00000E+00  9.000E+00
#rwgt            1           9  0.43711825601465515               12     1714998           0
</event>
<event>
      6   9999  3.45752E-01  3.10253E+01 -1.00000E+00  1.46900E-01
      21    -1     0     0   501   502  0.000000000E+00  0.000000000E+00  9.524505435E+00  9.524505435E+00  0.000000000E+00  0.00000E+00  9.000E+00
      21    -1     0     0   511   503  0.000000000E+00  0.000000000E+00 -1.338110015E+03  1.338110015E+03  0.000000000E+00  0.00000E+00  9.000E+00
      25     1     1     2     0     0  2.201791824E+00 -5.408001804E+00 -6.616603291E+02  6.733896312E+02  1.250004397E+02  0.00000E+00  9.000E+00
       5     1     1     2   501     0  3.147447190E+00  8.197023139E-02 -4.112713327E+00  7.027805763E+00  4.750000000E+00  0.00000E+00  9.000E+00
      -5     1     1     2     0   503  2.567411137E+01  5.670961914E+00 -9.871209758E+01  1.022641702E+02  4.750000000E+00  0.00000E+00  9.000E+00
      21     1     1     2   511   502 -3.102335038E+01 -3.449303407E-01 -5.641003691E+02  5.649529128E+02  7.629394531E-06  0.00000E+00  9.000E+00
#rwgt            1           9   5.9289169303896275E-005          12     1715873           0
</event>
<event>
      6   9999  3.45752E-01  7.10500E+00 -1.00000E+00  2.04318E-01
      21    -1     0     0   501   502  0.000000000E+00  0.000000000E+00  3.700903695E+03  3.700903695E+03  0.000000000E+00  0.00000E+00  9.000E+00
      21    -1     0     0   512   503  0.000000000E+00  0.000000000E+00 -1.557893018E+01  1.557893018E+01  0.000000000E+00  0.00000E+00  9.000E+00
      25     1     1     2     0     0  5.907825978E+00  8.068125466E+00  6.964595231E+02  7.076585789E+02  1.249991995E+02  0.00000E+00  9.000E+00
       5     1     1     2   501     0  9.644996833E-01 -3.212169397E+00  2.954505639E+03  2.954511361E+03  4.750000000E+00  0.00000E+00  9.000E+00
      -5     1     1     2     0   503 -8.025802252E+00  2.154788742E+00  4.246712765E+01  4.353247118E+01  4.750000000E+00  0.00000E+00  9.000E+00
      21     1     1     2   512   502  1.153476591E+00 -7.010744811E+00 -8.107525114E+00  1.078021403E+01  1.025477084E-06  0.00000E+00  9.000E+00
#rwgt            1           9   4.8864303641095214E-004          12     1717094           0
</event>
<event>
      6   9999  3.45752E-01  7.24814E+00 -1.00000E+00  2.03229E-01
      21    -1     0     0   501   502  0.000000000E+00  0.000000000E+00  5.992695369E+01  5.992695369E+01  0.000000000E+00  0.00000E+00  9.000E+00
      21    -1     0     0   511   503  0.000000000E+00  0.000000000E+00 -1.483462142E+03  1.483462142E+03  0.000000000E+00  0.00000E+00  9.000E+00
      25     1     1     2     0     0  5.376821676E+01 -5.957388194E+01 -3.789032505E+02  4.069830647E+02  1.250098924E+02  0.00000E+00  9.000E+00
       5     1     1     2   501     0  7.725422538E-01 -8.944008092E+00  4.285753346E+01  4.404455445E+01  4.750000000E+00  0.00000E+00  9.000E+00
      -5     1     1     2     0   503 -5.724489352E+01  7.524270655E+01 -1.042827723E+03  1.047115402E+03  4.750000000E+00  0.00000E+00  9.000E+00
      21     1     1     2   511   502  2.704134503E+00 -6.724816516E+00 -4.466174835E+01  4.524607460E+01  0.000000000E+00  0.00000E+00  9.000E+00
#rwgt            1           9   5.1814789486753422E-002          12     1720845           0
</event>
<event>
      6   9999  3.45752E-01  1.11495E+01 -1.00000E+00  1.82350E-01
      21    -1     0     0   501   502  0.000000000E+00  0.000000000E+00  1.246464220E+01  1.246464220E+01  0.000000000E+00  0.00000E+00  9.000E+00
      21    -1     0     0   512   503  0.000000000E+00  0.000000000E+00 -2.086299115E+03  2.086299115E+03  0.000000000E+00  0.00000E+00  9.000E+00
      25     1     1     2     0     0 -3.268596452E+00 -5.660677127E+00 -1.672499085E+03  1.677175646E+03  1.249889165E+02  0.00000E+00  9.000E+00
       5     1     1     2   501     0 -1.968286265E+00  4.690904076E+00  8.609889074E+00  1.107119785E+01  4.750000000E+00  0.00000E+00  9.000E+00
      -5     1     1     2     0   503 -5.266320536E+00  4.710572659E+00 -2.676976396E+02  2.678329935E+02  4.750000000E+00  0.00000E+00  9.000E+00
      21     1     1     2   512   502  1.050320325E+01 -3.740799608E+00 -1.422476372E+02  1.426839204E+02  1.907348633E-06  0.00000E+00  9.000E+00
#rwgt            1           9   2.1662749898466106E-002          12     1726308           0
</event>
<event>
      6   9999  3.45752E-01  4.26758E+00 -1.00000E+00  2.42170E-01
      21    -1     0     0   511   502  0.000000000E+00  0.000000000E+00  4.497579779E+02  4.497579779E+02  0.000000000E+00  0.00000E+00  9.000E+00
      21    -1     0     0   502   503  0.000000000E+00  0.000000000E+00 -8.160428252E+02  8.160428252E+02  0.000000000E+00  0.00000E+00  9.000E+00
      25     1     1     2     0     0  6.067322469E+00  5.896523218E+00 -8.031084789E+02  8.128206503E+02  1.249903969E+02  0.00000E+00  9.000E+00
       5     1     1     2   501     0 -1.663347817E-01 -6.985602556E-02 -4.550794342E+00  6.580636464E+00  4.750000000E+00  0.00000E+00  9.000E+00
      -5     1     1     2     0   503 -1.670489175E+00 -5.265273063E+00  2.800859304E+00  7.805187208E+00  4.750000000E+00  0.00000E+00  9.000E+00
      21     1     1     2   511   501 -4.230498513E+00 -5.613941297E-01  4.385735666E+02  4.385943292E+02  7.629394531E-06  0.00000E+00  9.000E+00
#rwgt            1           9   1.4333878195466594E-004          12     1729889           0
</event>
<event>
      6   9999  3.45752E-01  9.97826E+00 -1.00000E+00  1.87293E-01
      21    -1     0     0   501   502  0.000000000E+00  0.000000000E+00  1.464087554E+01  1.464087554E+01  0.000000000E+00  0.00000E+00  9.000E+00
       2    -1     0     0   502     0  0.000000000E+00  0.000000000E+00 -1.761006045E+03  1.761006045E+03  0.000000000E+00  0.00000E+00  9.000E+00
      25     1     1     2     0     0  1.353315183E+01 -2.334144142E+00 -8.743678264E+02  8.833637636E+02  1.249953942E+02  0.00000E+00  9.000E+00
       5     1     1     2   501     0 -8.010118534E-01  1.548524832E-01  8.790752060E+00  1.002523920E+01  4.750000000E+00  0.00000E+00  9.000E+00
      -5     1     1     2     0   503 -6.537229241E+00 -5.643028560E+00 -3.371612641E+01  3.512718061E+01  4.750000000E+00  0.00000E+00  9.000E+00
       2     1     1     2   503     0 -6.194910735E+00  7.822320219E+00 -8.470719685E+02  8.471307369E+02  1.078959322E-05  0.00000E+00  9.000E+00
#rwgt            1           9   1.7942189610233376E-005          12     1734743           0
</event>
<event>
      6   9999  3.45752E-01  1.21713E+01 -1.00000E+00  1.78631E-01
      21    -1     0     0   501   502  0.000000000E+00  0.000000000E+00  1.241694553E+02  1.241694553E+02  0.000000000E+00  0.00000E+00  9.000E+00
      21    -1     0     0   511   503  0.000000000E+00  0.000000000E+00 -6.450004713E+02  6.450004713E+02  0.000000000E+00  0.00000E+00  9.000E+00
      25     1     1     2     0     0  4.266461252E+01 -4.241318070E+01 -1.467147734E+02  2.019117627E+02  1.249959524E+02  0.00000E+00  9.000E+00
       5     1     1     2   501     0 -1.967101178E+00  2.855090984E+00  8.323372846E+01  8.344121934E+01  4.750000000E+00  0.00000E+00  9.000E+00
      -5     1     1     2     0   503 -5.195225389E+01  3.492447244E+01 -6.184790442E+01  8.812764175E+01  4.750000000E+00  0.00000E+00  9.000E+00
      21     1     1     2   511   502  1.125474255E+01  4.633617282E+00 -3.955020666E+02  3.956893028E+02  0.000000000E+00  0.00000E+00  9.000E+00
#rwgt            1           9   2.1522354611105024E-003          12     1737627           0
</event>
<event>
      6   9999  3.45752E-01  3.02172E+01 -1.00000E+00  1.47636E-01
      21    -1     0     0   501   502  0.000000000E+00  0.000000000E+00  2.374410060E+01  2.374410060E+01  0.000000000E+00  0.00000E+00  9.000E+00
      21    -1     0     0   512   503  0.000000000E+00  0.000000000E+00 -1.287538013E+03  1.287538013E+03  0.000000000E+00  0.00000E+00  9.000E+00
      25     1     1     2     0     0 -2.979066681E+00 -2.500359779E+01 -5.342327697E+02  5.492390097E+02  1.249991310E+02  0.00000E+00  9.000E+00
       5     1     1     2   501     0 -8.814408556E+00 -8.991588378E+00  1.235382821E+01  1.826806041E+01  4.750000000E+00  0.00000E+00  9.000E+00
      -5     1     1     2     0   503  1.191031238E+00  5.699076703E+00 -4.895210817E+02  4.895787475E+02  4.750000000E+00  0.00000E+00  9.000E+00
      21     1     1     2   512   502  1.060244400E+01  2.829610946E+01 -2.523938889E+02  2.541962957E+02  3.814697266E-06  0.00000E+00  9.000E+00
#rwgt            1           9   4.0667203538455657E-004          12     1740450           0
</event>
<event>
      6   9999  3.45752E-01  2.74944E+00 -1.00000E+00  2.87208E-01
      21    -1     0     0   501   502  0.000000000E+00  0.000000000E+00  1.185011126E+01  1.185011126E+01  0.000000000E+00  0.00000E+00  9.000E+00
      21    -1     0     0   502   511  0.000000000E+00  0.000000000E+00 -2.028987180E+03  2.028987180E+03  0.000000000E+00  0.00000E+00  9.000E+00
      25     1     1     2     0     0 -2.107449564E+00  1.957154141E+01 -1.000412271E+03  1.008383395E+03  1.249994887E+02  0.00000E+00  9.000E+00
       5     1     1     2   501     0 -3.806752920E-01 -4.120807209E+00  6.521744795E+00  9.067613848E+00  4.750000000E+00  0.00000E+00  9.000E+00
      -5     1     1     2     0   503  1.342124873E+00 -1.295151587E+01 -7.692083153E+02  7.693331774E+02  4.750000000E+00  0.00000E+00  9.000E+00
      21     1     1     2   503   511  1.145999983E+00 -2.499218334E+00 -2.540382271E+02  2.540531052E+02  3.814697266E-06  0.00000E+00  9.000E+00
#rwgt            1           9  0.69443768842671894               12     1741815           0
</event>
<event>
      6   9999  3.45752E-01  6.67754E+00 -1.00000E+00  2.07784E-01
      -2    -1     0     0     0   502  0.000000000E+00  0.000000000E+00  2.124436203E+02  2.124436203E+02  0.000000000E+00  0.00000E+00  9.000E+00
      21    -1     0     0   502   503  0.000000000E+00  0.000000000E+00 -1.065180095E+03  1.065180095E+03  0.000000000E+00  0.00000E+00  9.000E+00
      25     1     1     2     0     0  2.879187708E+01  7.413741673E+00 -3.056781205E+02  3.315837120E+02  1.249988358E+02  0.00000E+00  9.000E+00
       5     1     1     2   501     0  6.001384291E+00  2.556764900E+00  1.416300518E+01  1.630051765E+01  4.750000000E+00  0.00000E+00  9.000E+00
      -5     1     1     2     0   503 -2.817071822E+01 -9.115251462E+00 -7.451182369E+02  7.457214135E+02  4.750000000E+00  0.00000E+00  9.000E+00
      -2     1     1     2     0   501 -6.622543155E+00 -8.552551109E-01  1.838968772E+02  1.840180724E+02  5.394796609E-06  0.00000E+00  9.000E+00
#rwgt            1           9   1.7120254194810735E-002          12     1749134           0
</event>
<event>
      6   9999  3.45752E-01  7.91094E+00 -1.00000E+00  1.98593E-01
      21    -1     0     0   511   503  0.000000000E+00  0.000000000E+00  9.189624181E+01  9.189624181E+01  0.000000000E+00  0.00000E+00  9.000E+00
      21    -1     0     0   501   502  0.000000000E+00  0.000000000E+00 -3.771901284E+02  3.771901284E+02  0.000000000E+00  0.00000E+00  9.000E+00
      25     1     1     2     0     0 -2.744846000E+01 -2.365460605E+01  3.276758772E+01  1.342102143E+02  1.250028339E+02  0.00000E+00  9.000E+00
       5     1     1     2   501     0  3.355895948E+01  3.542836099E+01 -3.156685113E+02  3.194535085E+02  4.750000000E+00  0.00000E+00  9.000E+00
      -5     1     1     2     0   503 -2.370969056E+00 -4.802467805E+00 -2.272514091E+00  7.510793006E+00  4.750000000E+00  0.00000E+00  9.000E+00
      21     1     1     2   511   502 -3.739530422E+00 -6.971287132E+00 -1.204488760E-01  7.911854396E+00  9.643574314E-08  0.00000E+00  9.000E+00
#rwgt            1           9   1346.3730077902926               12     1753730           0
</event>
<event>
      6   9999  3.45752E-01  3.53885E+00 -1.00000E+00  2.59401E-01
      21    -1     0     0   512   502  0.000000000E+00  0.000000000E+00  2.978933446E+01  2.978933446E+01  0.000000000E+00  0.00000E+00  9.000E+00
      21    -1     0     0   502   503  0.000000000E+00  0.000000000E+00 -7.745926277E+02  7.745926277E+02  0.000000000E+00  0.00000E+00  9.000E+00
      25     1     1     2     0     0  7.993271389E+00 -3.074218591E+00 -5.907337012E+02  6.038743221E+02  1.249981921E+02  0.00000E+00  9.000E+00
       5     1     1     2   501     0 -2.223835912E-01 -1.525491088E-01  6.773043861E-01  4.805618267E+00  4.750000000E+00  0.00000E+00  9.000E+00
      -5     1     1     2     0   503 -5.473836701E+00  5.918790822E+00 -1.749455961E+02  1.751956594E+02  4.750000000E+00  0.00000E+00  9.000E+00
      21     1     1     2   512   501 -2.297051096E+00 -2.692023123E+00  2.019869962E+01  2.050636240E+01  1.092571186E-06  0.00000E+00  9.000E+00
#rwgt            1           9   2.4540443372500133E-002          12     1757543           0
</event>
<event>
      6   9999  3.45752E-01  4.34072E+00 -1.00000E+00  2.40724E-01
      21    -1     0     0   501   502  0.000000000E+00  0.000000000E+00  3.550303226E+02  3.550303226E+02  0.000000000E+00  0.00000E+00  9.000E+00
      21    -1     0     0   511   503  0.000000000E+00  0.000000000E+00 -1.749412665E+01  1.749412665E+01  0.000000000E+00  0.00000E+00  9.000E+00
      25     1     1     2     0     0 -2.984023783E+00  1.844264456E+00  2.978232503E+02  3.230110790E+02  1.250006522E+02  0.00000E+00  9.000E+00
       5     1     1     2   501     0 -2.958587593E-01  2.082775452E-01  3.028199031E+01  3.065440178E+01  4.750000000E+00  0.00000E+00  9.000E+00
      -5     1     1     2     0   503 -5.712170285E-01 -4.982693259E-02  1.260440375E+01  1.348192366E+01  4.750000000E+00  0.00000E+00  9.000E+00
      21     1     1     2   511   502  3.851099571E+00 -2.002715069E+00 -3.173448428E+00  5.377044772E+00  1.737759082E-07  0.00000E+00  9.000E+00
#rwgt            1           9   4.6860524444254675E-004          12     1762713           0
</event>
<event>
      6   9999  3.45752E-01  1.09626E+01 -1.00000E+00  1.83085E-01
      21    -1     0     0   501   502  0.000000000E+00  0.000000000E+00  2.417027627E+01  2.417027627E+01  0.000000000E+00  0.00000E+00  9.000E+00
      21    -1     0     0   502   512  0.000000000E+00  0.000000000E+00 -3.821119469E+02  3.821119469E+02  0.000000000E+00  0.00000E+00  9.000E+00
      25     1     1     2     0     0 -9.429006378E-01 -2.176111674E+00 -1.761422456E+02  2.160021104E+02  1.250007859E+02  0.00000E+00  9.000E+00
       5     1     1     2   501     0  5.187768532E-01  1.994152680E-01  1.342356440E+00  4.967224244E+00  4.750000000E+00  0.00000E+00  9.000E+00
      -5     1     1     2     0   503  9.854717912E+00 -3.612768709E+00 -1.492112658E+02  1.496553772E+02  4.750000000E+00  0.00000E+00  9.000E+00
      21     1     1     2   503   512 -9.430594127E+00  5.589465115E+00 -3.393051563E+01  3.565751137E+01  4.768371582E-07  0.00000E+00  9.000E+00
#rwgt            1           9  0.79682486431680433               12     1767465           0
</event>
<event>
      6   9999  3.45752E-01  3.21103E+00 -1.00000E+00  2.69411E-01
      21    -1     0     0   501   502  0.000000000E+00  0.000000000E+00  1.563146874E+02  1.563146874E+02  0.000000000E+00  0.00000E+00  9.000E+00
       1    -1     0     0   502     0  0.000000000E+00  0.000000000E+00 -1.564044307E+03  1.564044307E+03  0.000000000E+00  0.00000E+00  9.000E+00
      25     1     1     2     0     0 -1.093357950E+00  5.847148977E+01 -8.250278063E+01  1.607881209E+02  1.250040018E+02  0.00000E+00  9.000E+00
       5     1     1     2   501     0  7.372313319E-01  3.999442670E-01  1.049859238E+02  1.050966706E+02  4.750000000E+00  0.00000E+00  9.000E+00
      -5     1     1     2     0   503  3.244427640E+00 -5.746841835E+01 -5.662684433E+01  8.088453138E+01  4.750000000E+00  0.00000E+00  9.000E+00
       1     1     1     2   503     0 -2.888301021E+00 -1.403015683E+00 -1.373585919E+03  1.373589672E+03  1.525878906E-05  0.00000E+00  9.000E+00
#rwgt            1           9   5.7486854138948749E-003          12     1770183           0
</event>
<event>
      6   9999 -3.45752E-01  7.33290E+00 -1.00000E+00  2.02600E-01
      21    -1     0     0   501   502  0.000000000E+00  0.000000000E+00  1.370484965E+01  1.370484965E+01  0.000000000E+00  0.00000E+00  9.000E+00
      21    -1     0     0   511   503  0.000000000E+00  0.000000000E+00 -1.215683929E+03  1.215683929E+03  0.000000000E+00  0.00000E+00  9.000E+00
      25     1     1     2     0     0 -1.791351620E+01  5.190172709E+00 -7.408323948E+02  7.515357164E+02  1.250018559E+02  0.00000E+00  9.000E+00
       5     1     1     2   501     0 -3.934361386E+00  1.732593720E-01  6.581169618E+00  9.021281054E+00  4.750000000E+00  0.00000E+00  9.000E+00
      -5     1     1     2     0   503  1.455552600E+01 -4.593358977E+00 -1.240474571E+02  1.250731642E+02  4.750000000E+00  0.00000E+00  9.000E+00
      21     1     1     2   511   502  7.292351580E+00 -7.700731041E-01 -3.436803975E+02  3.437586174E+02  3.814697266E-06  0.00000E+00  9.000E+00
#rwgt            1           9  -1.5337118108879695E-002          12     1777492           0
</event>
<event>
      6   9999 -3.45752E-01  2.03079E+01 -1.00000E+00  1.59706E-01
      21    -1     0     0   502   503  0.000000000E+00  0.000000000E+00  7.790040974E+00  7.790040974E+00  0.000000000E+00  0.00000E+00  9.000E+00
      21    -1     0     0   501   512  0.000000000E+00  0.000000000E+00 -8.170371286E+02  8.170371286E+02  0.000000000E+00  0.00000E+00  9.000E+00
      25     1     1     2     0     0 -9.553580805E+00  1.386264272E+01 -6.496539487E+02  6.617798216E+02  1.249753392E+02  0.00000E+00  9.000E+00
       5     1     1     2   501     0  2.358549518E-01 -3.345419752E-02 -3.236853875E+01  3.271607476E+01  4.750000000E+00  0.00000E+00  9.000E+00
      -5     1     1     2     0   503 -3.539789490E+00  1.890017460E+00 -1.427407771E+01  1.556965222E+01  4.750000000E+00  0.00000E+00  9.000E+00
      21     1     1     2   502   512  1.285751534E+01 -1.571920598E+01 -1.129505225E+02  1.147616210E+02  1.907348633E-06  0.00000E+00  9.000E+00
#rwgt            1           9  -7.9931257047294747E-003          12     1780740           0
</event>
<event>
      6   9999  3.45752E-01  8.49996E+01 -1.00000E+00  1.23513E-01
      21    -1     0     0   502   511  0.000000000E+00  0.000000000E+00  5.384651180E+02  5.384651180E+02  0.000000000E+00  0.00000E+00  9.000E+00
      21    -1     0     0   501   502  0.000000000E+00  0.000000000E+00 -9.680823371E+02  9.680823371E+02  0.000000000E+00  0.00000E+00  9.000E+00
      25     1     1     2     0     0 -3.533901143E+01  4.079902218E+01 -8.399835449E+02  8.509471607E+02  1.250012351E+02  0.00000E+00  9.000E+00
       5     1     1     2   501     0 -1.208618722E+01  4.778996502E+01 -8.989670183E+01  1.026349657E+02  4.750000000E+00  0.00000E+00  9.000E+00
      -5     1     1     2     0   503 -2.538515105E+00 -1.982445404E+01 -1.828199331E+01  2.749994211E+01  4.750000000E+00  0.00000E+00  9.000E+00
      21     1     1     2   503   511  4.996371376E+01 -6.876453316E+01  5.185450209E+02  5.254653865E+02  0.000000000E+00  0.00000E+00  9.000E+00
#rwgt            1           9   2.4874640654062218E-002          12     1781882           0
</event>
<event>
      6   9999  3.45752E-01  3.84916E+01 -1.00000E+00  1.41161E-01
      21    -1     0     0   501   502  0.000000000E+00  0.000000000E+00  9.533400916E+01  9.533400916E+01  0.000000000E+00  0.00000E+00  9.000E+00
      21    -1     0     0   512   503  0.000000000E+00  0.000000000E+00 -1.087553960E+03  1.087553960E+03  0.000000000E+00  0.00000E+00  9.000E+00
      25     1     1     2     0     0  1.517520310E+02  5.135287254E+01 -3.731221841E+02  4.248642327E+02  1.249946220E+02  0.00000E+00  9.000E+00
       5     1     1     2   501     0  1.856099454E+00  5.631635652E+00  5.936343477E+01  5.984764250E+01  4.750000000E+00  0.00000E+00  9.000E+00
      -5     1     1     2     0   503 -1.180000110E+02 -4.236718280E+01 -4.885402505E+02  5.043938140E+02  4.750000000E+00  0.00000E+00  9.000E+00
      21     1     1     2   512   502 -3.560811950E+01 -1.461732539E+01 -1.899209513E+02  1.937822802E+02  2.697398305E-06  0.00000E+00  9.000E+00
#rwgt            1           9   5.9142718310317997E-002          12     1782421           0
</event>
<event>
      6   9999  3.45752E-01  5.55072E+00 -1.00000E+00  2.18877E-01
      21    -1     0     0   501   502  0.000000000E+00  0.000000000E+00  4.783039294E+01  4.783039294E+01  0.000000000E+00  0.00000E+00  9.000E+00
       2    -1     0     0   502     0  0.000000000E+00  0.000000000E+00 -1.908453647E+03  1.908453647E+03  0.000000000E+00  0.00000E+00  9.000E+00
      25     1     1     2     0     0 -4.243808974E+01  1.254469988E+02 -7.143614804E+02  7.372075304E+02  1.249987090E+02  0.00000E+00  9.000E+00
       5     1     1     2   501     0  5.775066801E-01 -5.356235006E-01  2.865798288E+01  2.905964365E+01  4.750000000E+00  0.00000E+00  9.000E+00
      -5     1     1     2     0   503  4.736254953E+01 -1.241773301E+02 -5.792034665E+02  5.942747164E+02  4.750000000E+00  0.00000E+00  9.000E+00
       2     1     1     2   503     0 -5.501966471E+00 -7.340451509E-01 -5.957162899E+02  5.957421494E+02  7.629394531E-06  0.00000E+00  9.000E+00
#rwgt            1           9   1.4277061924908261E-004          12     1784043           0
</event>
<event>
      6   9999  3.45752E-01  4.13149E+01 -1.00000E+00  1.39376E-01
      21    -1     0     0   511   503  0.000000000E+00  0.000000000E+00  5.485979169E+01  5.485979169E+01  0.000000000E+00  0.00000E+00  9.000E+00
      21    -1     0     0   501   502  0.000000000E+00  0.000000000E+00 -1.631701047E+02  1.631701047E+02  0.000000000E+00  0.00000E+00  9.000E+00
      25     1     1     2     0     0  2.711905694E+01 -2.319075224E+01 -6.938937042E+01  1.473635797E+02  1.250115421E+02  0.00000E+00  9.000E+00
       5     1     1     2   501     0 -2.730605662E-02 -3.472067442E+00 -1.688445602E+01  1.788025036E+01  4.750000000E+00  0.00000E+00  9.000E+00
      -5     1     1     2     0   503  4.605274304E+00  1.633541387E-01 -3.733036937E+00  7.598243268E+00  4.750000000E+00  0.00000E+00  9.000E+00
      21     1     1     2   511   502 -3.169702518E+01  2.649946554E+01 -1.830344960E+01  4.518782299E+01  7.907449699E-07  0.00000E+00  9.000E+00
#rwgt            1           9   2383.7469453263716               12     1789990           0
</event>
<event>
      6   9999 -3.45752E-01  4.24332E+01 -1.00000E+00  1.38715E-01
      21    -1     0     0   512   503  0.000000000E+00  0.000000000E+00  4.092137676E+01  4.092137676E+01  0.000000000E+00  0.00000E+00  9.000E+00
      21    -1     0     0   501   502  0.000000000E+00  0.000000000E+00 -8.547775260E+02  8.547775260E+02  0.000000000E+00  0.00000E+00  9.000E+00
      25     1     1     2     0     0 -9.520196103E+00  1.131695349E+01 -6.178049594E+02  6.304975517E+02  1.250019489E+02  0.00000E+00  9.000E+00
       5     1     1     2   501     0 -2.436788187E+00  5.085932979E+00 -1.815288113E+02  1.816784976E+02  4.750000000E+00  0.00000E+00  9.000E+00
      -5     1     1     2     0   503 -2.584331849E+01  2.876895587E+00 -2.847674752E+01  3.885410259E+01  4.750000000E+00  0.00000E+00  9.000E+00
      21     1     1     2   512   502  3.780030278E+01 -1.927978206E+01  1.395436905E+01  4.466875085E+01  1.450243599E-06  0.00000E+00  9.000E+00
#rwgt            1           9 -0.11776203315173654               12     1790669           0
</event>
<event>
      6   9999  3.45752E-01  9.87992E+00 -1.00000E+00  1.87748E-01
      21    -1     0     0   501   511  0.000000000E+00  0.000000000E+00  1.761898002E+02  1.761898002E+02  0.000000000E+00  0.00000E+00  9.000E+00
      21    -1     0     0   502   503  0.000000000E+00  0.000000000E+00 -1.504533098E+03  1.504533098E+03  0.000000000E+00  0.00000E+00  9.000E+00
      25     1     1     2     0     0  8.566778997E+01  2.051012132E+02 -7.780495094E+02  8.187739561E+02  1.249970968E+02  0.00000E+00  9.000E+00
       5     1     1     2   501     0 -1.183732585E+00  9.969727669E+00  3.362371035E+01  3.541063527E+01  4.750000000E+00  0.00000E+00  9.000E+00
      -5     1     1     2     0   503 -9.041002697E+01 -2.071655217E+02 -6.868656179E+02  7.231171869E+02  4.750000000E+00  0.00000E+00  9.000E+00
      21     1     1     2   502   511  5.925969583E+00 -7.905419165E+00  1.029481193E+02  1.034211198E+02  4.862803949E-06  0.00000E+00  9.000E+00
#rwgt            1           9   7.0499205420338011E-006          12     1791896           0
</event>
<event>
      6   9999  3.45752E-01  2.30256E+01 -1.00000E+00  1.55677E-01
      21    -1     0     0   501   502  0.000000000E+00  0.000000000E+00  3.501381396E+01  3.501381396E+01  0.000000000E+00  0.00000E+00  9.000E+00
      21    -1     0     0   512   503  0.000000000E+00  0.000000000E+00 -2.484507226E+03  2.484507226E+03  0.000000000E+00  0.00000E+00  9.000E+00
      25     1     1     2     0     0 -2.428666887E+02 -1.153200040E+02 -1.166284663E+03  1.203381852E+03  1.250001461E+02  0.00000E+00  9.000E+00
       5     1     1     2   501     0  1.731481469E-01  8.790203122E-02  1.231022221E-01  4.755561082E+00  4.750000000E+00  0.00000E+00  9.000E+00
      -5     1     1     2     0   503  2.199692897E+02  1.115190920E+02 -1.163660248E+03  1.189517016E+03  4.750000000E+00  0.00000E+00  9.000E+00
      21     1     1     2   512   502  2.272425081E+01  3.713009975E+00 -1.196716032E+02  1.218666100E+02  1.348699152E-06  0.00000E+00  9.000E+00
#rwgt            1           9   5.9351144586202191E-004          12     1796414           0
</event>
<event>
      6   9999  3.45752E-01  5.91029E+00 -1.00000E+00  2.14973E-01
      21    -1     0     0   511   502  0.000000000E+00  0.000000000E+00  8.769324307E+00  8.769324307E+00  0.000000000E+00  0.00000E+00  9.000E+00
      21    -1     0     0   502   503  0.000000000E+00  0.000000000E+00 -7.641430449E+02  7.641430449E+02  0.000000000E+00  0.00000E+00  9.000E+00
      25     1     1     2     0     0 -7.544793633E+00  4.955001272E+00 -7.038066063E+02  7.148850365E+02  1.250415948E+02  0.00000E+00  9.000E+00
       5     1     1     2   501     0  8.972558232E-01 -2.284006867E-01 -8.935283511E-01  4.921191705E+00  4.750000000E+00  0.00000E+00  9.000E+00
      -5     1     1     2     0   503  8.717115176E+00  8.095005354E-01 -3.056023254E+01  3.214239725E+01  4.750000000E+00  0.00000E+00  9.000E+00
      21     1     1     2   511   501 -2.069577367E+00 -5.536101121E+00 -2.011335338E+01  2.096374371E+01  0.000000000E+00  0.00000E+00  9.000E+00
#rwgt            1           9   1.3476559063067245E-004          12     1799062           0
</event>
<event>
      6   9999  3.45752E-01  1.41103E+01 -1.00000E+00  1.72705E-01
      21    -1     0     0   501   502  0.000000000E+00  0.000000000E+00  2.264331027E+01  2.264331027E+01  0.000000000E+00  0.00000E+00  9.000E+00
      21    -1     0     0   512   503  0.000000000E+00  0.000000000E+00 -1.903232739E+03  1.903232739E+03  0.000000000E+00  0.00000E+00  9.000E+00
      25     1     1     2     0     0 -6.765000133E+01 -9.433498665E+01 -5.814725412E+02  6.059794715E+02  1.250007651E+02  0.00000E+00  9.000E+00
       5     1     1     2   501     0  8.335613738E+01  8.463405605E+01 -3.576295903E+02  3.768722004E+02  4.750000000E+00  0.00000E+00  9.000E+00
      -5     1     1     2     0   503 -1.246622690E+01 -4.032325996E+00 -6.752601322E+01  6.894919454E+01  4.750000000E+00  0.00000E+00  9.000E+00
      21     1     1     2   512   502 -3.239909147E+00  1.373325659E+01 -8.739612843E+02  8.740751832E+02  0.000000000E+00  0.00000E+00  9.000E+00
#rwgt            1           9   1.2939639676101337E-003          12     1802353           0
</event>
<event>
      6   9999  3.45752E-01  1.02965E+01 -1.00000E+00  1.85867E-01
      21    -1     0     0   501   502  0.000000000E+00  0.000000000E+00  1.206116955E+03  1.206116955E+03  0.000000000E+00  0.00000E+00  9.000E+00
      21    -1     0     0   511   503  0.000000000E+00  0.000000000E+00 -4.222704817E+01  4.222704817E+01  0.000000000E+00  0.00000E+00  9.000E+00
      25     1     1     2     0     0 -3.462960478E+01  8.023348603E+00  4.140237918E+02  4.339454317E+02  1.250174143E+02  0.00000E+00  9.000E+00
       5     1     1     2   501     0  2.299421572E+00 -2.726041932E+00  7.576411181E+02  7.576644013E+02  4.750000000E+00  0.00000E+00  9.000E+00
      -5     1     1     2     0   503  3.715296692E+01  3.799920723E+00  7.427112330E+00  3.837325692E+01  4.750000000E+00  0.00000E+00  9.000E+00
      21     1     1     2   511   502 -4.822783713E+00 -9.097227394E+00 -1.520211590E+01  1.836091275E+01  5.331201500E-07  0.00000E+00  9.000E+00
#rwgt            1           9   3.5699326091095430E-004          12     1804826           0
</event>
<event>
      6   9999 -3.45752E-01  2.05222E+00 -1.00000E+00  3.28615E-01
      21    -1     0     0   512   502  0.000000000E+00  0.000000000E+00  6.972589447E+00  6.972589447E+00  0.000000000E+00  0.00000E+00  9.000E+00
      21    -1     0     0   502   503  0.000000000E+00  0.000000000E+00 -7.825774724E+02  7.825774724E+02  0.000000000E+00  0.00000E+00  9.000E+00
      25     1     1     2     0     0  4.575593970E-02 -7.409198572E+00 -7.430484895E+02  7.535259256E+02  1.250014583E+02  0.00000E+00  9.000E+00
       5     1     1     2   501     0 -3.473570330E-01 -2.270893210E-01 -8.105509565E+00  9.403935973E+00  4.750000000E+00  0.00000E+00  9.000E+00
      -5     1     1     2     0   503 -1.491143075E+00  6.637447072E+00 -1.740426574E+01  1.928082408E+01  4.750000000E+00  0.00000E+00  9.000E+00
      21     1     1     2   512   501  1.792744168E+00  9.988408209E-01 -7.046618187E+00  7.339376166E+00  8.429369702E-08  0.00000E+00  9.000E+00
#rwgt            1           9  -2.2576132040520554E-004          12     1808200           0
</event>
<event>
      6   9999  3.45752E-01  7.71911E+00 -1.00000E+00  1.99871E-01
      21    -1     0     0   501   502  0.000000000E+00  0.000000000E+00  1.127886984E+01  1.127886984E+01  0.000000000E+00  0.00000E+00  9.000E+00
      21    -1     0     0   502   511  0.000000000E+00  0.000000000E+00 -1.045569701E+03  1.045569701E+03  0.000000000E+00  0.00000E+00  9.000E+00
      25     1     1     2     0     0 -2.208490704E+00  4.033773490E+00 -7.147694440E+02  7.256317403E+02  1.249996628E+02  0.00000E+00  9.000E+00
       5     1     1     2   501     0 -2.072310382E+00 -3.680338062E-01  4.104725512E+00  6.621268061E+00  4.750000000E+00  0.00000E+00  9.000E+00
      -5     1     1     2     0   503  3.274494013E+00 -1.131897303E+01 -9.580118030E+01  9.663989915E+01  4.750000000E+00  0.00000E+00  9.000E+00
      21     1     1     2   503   511  1.006307073E+00  7.653233344E+00 -2.278249322E+02  2.279556632E+02  2.697398305E-06  0.00000E+00  9.000E+00
#rwgt            1           9   2.6670824790924605E-005          12     1815121           0
</event>
<event>
      6   9999  3.45752E-01  5.69838E+00 -1.00000E+00  2.17226E-01
      21    -1     0     0   501   512  0.000000000E+00  0.000000000E+00  3.466287788E+02  3.466287788E+02  0.000000000E+00  0.00000E+00  9.000E+00
      21    -1     0     0   502   503  0.000000000E+00  0.000000000E+00 -2.784630492E+02  2.784630492E+02  0.000000000E+00  0.00000E+00  9.000E+00
      25     1     1     2     0     0 -1.954531945E+01 -2.995603849E+01 -1.739636487E+02  2.171850242E+02  1.250063995E+02  0.00000E+00  9.000E+00
       5     1     1     2   501     0  1.667259892E+00  8.665312187E+00 -1.975408239E+01  2.215070342E+01  4.750000000E+00  0.00000E+00  9.000E+00
      -5     1     1     2     0   503  2.192343342E+01  1.727744429E+01 -5.867365067E+01  6.514834454E+01  4.750000000E+00  0.00000E+00  9.000E+00
      21     1     1     2   502   512 -4.045373868E+00  4.013282010E+00  3.205571113E+02  3.206077558E+02  5.394796609E-06  0.00000E+00  9.000E+00
#rwgt            1           9   1.9770694211158974E-002          12     1818202           0
</event>
<event>
      6   9999  3.45752E-01  9.37532E+00 -1.00000E+00  1.90194E-01
      21    -1     0     0   511   502  0.000000000E+00  0.000000000E+00  4.232978949E+00  4.232978949E+00  0.000000000E+00  0.00000E+00  9.000E+00
      21    -1     0     0   502   503  0.000000000E+00  0.000000000E+00 -4.264771541E+03  4.264771541E+03  0.000000000E+00  0.00000E+00  9.000E+00
      25     1     1     2     0     0  3.035436427E+00 -6.994851003E+00 -4.072232766E+03  4.074157985E+03  1.250017752E+02  0.00000E+00  9.000E+00
       5     1     1     2   501     0 -5.738892186E-02 -1.756114177E+00 -1.723490475E+01  1.796362080E+01  4.750000000E+00  0.00000E+00  9.000E+00
      -5     1     1     2     0   503  1.955949621E-02 -1.322188242E-01 -1.662919860E+02  1.663598659E+02  4.750000000E+00  0.00000E+00  9.000E+00
      21     1     1     2   511   501 -2.997607002E+00  8.883184004E+00 -4.778904861E+00  1.052304792E+01  1.585976445E-06  0.00000E+00  9.000E+00
#rwgt            1           9   1.1670970690937726E-004          12     1821494           0
</event>
<event>
      6   9999  3.45752E-01  1.21507E+01 -1.00000E+00  1.78701E-01
      21    -1     0     0   501   512  0.000000000E+00  0.000000000E+00  6.512377015E+01  6.512377015E+01  0.000000000E+00  0.00000E+00  9.000E+00
      21    -1     0     0   502   503  0.000000000E+00  0.000000000E+00 -1.295612825E+03  1.295612825E+03  0.000000000E+00  0.00000E+00  9.000E+00
      25     1     1     2     0     0 -5.881131453E+01 -1.779594587E+02 -6.982143041E+02  7.336606761E+02  1.250057344E+02  0.00000E+00  9.000E+00
       5     1     1     2   501     0 -1.282317161E+00  1.567914444E+00  1.195878244E+01  1.302603817E+01  4.750000000E+00  0.00000E+00  9.000E+00
      -5     1     1     2     0   503  7.223433307E+01  1.758984541E+02 -5.615529942E+02  5.928932390E+02  4.750000000E+00  0.00000E+00  9.000E+00
      21     1     1     2   502   512 -1.214070138E+01  4.930901048E-01  1.731946097E+01  2.115664189E+01  1.168007728E-06  0.00000E+00  9.000E+00
#rwgt            1           9   1.0727284712154193E-004          12     1823525           0
</event>
<event>
      6   9999  3.45752E-01  3.75234E+00 -1.00000E+00  2.53739E-01
      21    -1     0     0   501   502  0.000000000E+00  0.000000000E+00  1.439582449E+01  1.439582449E+01  0.000000000E+00  0.00000E+00  9.000E+00
      21    -1     0     0   502   511  0.000000000E+00  0.000000000E+00 -9.010821443E+02  9.010821443E+02  0.000000000E+00  0.00000E+00  9.000E+00
      25     1     1     2     0     0  2.314466163E+01  1.547652119E+01 -5.091559149E+02  5.250087297E+02  1.249768880E+02  0.00000E+00  9.000E+00
       5     1     1     2   501     0 -2.173283056E+00 -1.658914751E+00  4.430981888E+00  7.047783899E+00  4.750000000E+00  0.00000E+00  9.000E+00
      -5     1     1     2     0   503 -2.096465851E+01 -1.756994052E+01 -3.647857776E+02  3.658407382E+02  4.750000000E+00  0.00000E+00  9.000E+00
      21     1     1     2   503   511 -6.720058676E-03  3.752334082E+00 -1.717560924E+01  1.758071696E+01  3.371747881E-07  0.00000E+00  9.000E+00
#rwgt            1           9   3.1070872189024012E-005          12     1827012           0
</event>
<event>
      6   9999  3.45752E-01  1.71793E+01 -1.00000E+00  1.65419E-01
      21    -1     0     0   512   502  0.000000000E+00  0.000000000E+00  1.261595334E+02  1.261595334E+02  0.000000000E+00  0.00000E+00  9.000E+00
      21    -1     0     0   502   503  0.000000000E+00  0.000000000E+00 -1.160140846E+03  1.160140846E+03  0.000000000E+00  0.00000E+00  9.000E+00
      25     1     1     2     0     0 -1.936525823E+01 -1.818941908E+01 -1.036476102E+03  1.044325204E+03  1.250062208E+02  0.00000E+00  9.000E+00
       5     1     1     2   501     0 -9.722482305E+00  7.433043189E+00  2.662317416E+01  2.968387939E+01  4.750000000E+00  0.00000E+00  9.000E+00
      -5     1     1     2     0   503  1.203968229E+01  8.636590378E+00 -1.169058131E+02  1.179367469E+02  4.750000000E+00  0.00000E+00  9.000E+00
      21     1     1     2   512   501  1.704805824E+01  2.119785512E+00  9.277742778E+01  9.435454883E+01  2.336015456E-06  0.00000E+00  9.000E+00
#rwgt            1           9   2.0288642080241437E-004          12     1832165           0
</event>
<event>
      6   9999  3.45752E-01  8.33115E+00 -1.00000E+00  1.95952E-01
      21    -1     0     0   502   511  0.000000000E+00  0.000000000E+00  3.874054329E+00  3.874054329E+00  0.000000000E+00  0.00000E+00  9.000E+00
      21    -1     0     0   501   502  0.000000000E+00  0.000000000E+00 -3.008797503E+03  3.008797503E+03  0.000000000E+00  0.00000E+00  9.000E+00
      25     1     1     2     0     0  4.104452809E+00  1.753360102E+01 -2.823117887E+03  2.825941283E+03  1.250010285E+02  0.00000E+00  9.000E+00
       5     1     1     2   501     0  1.714200393E-01  7.334682875E-02 -6.008843054E+01  6.027617066E+01  4.750000000E+00  0.00000E+00  9.000E+00
      -5     1     1     2     0   503  3.971657883E+00 -1.642953906E+01 -1.131498156E+02  1.145039174E+02  4.750000000E+00  0.00000E+00  9.000E+00
      21     1     1     2   503   511 -8.247530732E+00 -1.177408792E+00 -8.567314956E+00  1.195018578E+01  8.085167388E-07  0.00000E+00  9.000E+00
#rwgt            1           9   1.8559340213386441E-005          12     1834946           0
</event>
<event>
      6   9999  3.45752E-01  5.16162E+01 -1.00000E+00  1.34052E-01
      21    -1     0     0   501   502  0.000000000E+00  0.000000000E+00  1.097655962E+02  1.097655962E+02  0.000000000E+00  0.00000E+00  9.000E+00
      21    -1     0     0   512   503  0.000000000E+00  0.000000000E+00 -3.207976047E+02  3.207976047E+02  0.000000000E+00  0.00000E+00  9.000E+00
      25     1     1     2     0     0 -2.215188193E+01 -2.584651486E+00 -1.181022096E+02  1.734081537E+02  1.249994782E+02  0.00000E+00  9.000E+00
       5     1     1     2   501     0  1.523076837E+00 -3.396141829E+00  2.030976466E+01  2.118732128E+01  4.750000000E+00  0.00000E+00  9.000E+00
      -5     1     1     2     0   503  4.303405830E+01 -4.051904166E+01  4.180763491E+01  7.255455704E+01  4.750000000E+00  0.00000E+00  9.000E+00
      21     1     1     2   512   502 -2.240525320E+01  4.649983497E+01 -1.550471985E+02  1.634131689E+02  0.000000000E+00  0.00000E+00  9.000E+00
#rwgt            1           9   1.0514861162231207E-003          12     1837440           0
</event>
<event>
      6   9999  3.45752E-01  8.51221E+00 -1.00000E+00  1.94877E-01
      21    -1     0     0   501   511  0.000000000E+00  0.000000000E+00  9.932289849E+00  9.932289849E+00  0.000000000E+00  0.00000E+00  9.000E+00
      21    -1     0     0   502   503  0.000000000E+00  0.000000000E+00 -9.117266474E+02  9.117266474E+02  0.000000000E+00  0.00000E+00  9.000E+00
      25     1     1     2     0     0  4.726033479E-01  6.871543816E+00 -7.426494756E+02  7.531274925E+02  1.250013395E+02  0.00000E+00  9.000E+00
       5     1     1     2   501     0 -1.576128998E+00 -2.368473620E+00  1.703780631E+00  5.793031879E+00  4.750000000E+00  0.00000E+00  9.000E+00
      -5     1     1     2     0   503  1.913630265E+00 -1.297664303E+01 -1.296828425E+02  1.304310445E+02  4.750000000E+00  0.00000E+00  9.000E+00
      21     1     1     2   502   511 -8.101046147E-01  8.473572838E+00 -3.116582006E+01  3.230736830E+01  6.743495762E-07  0.00000E+00  9.000E+00
#rwgt            1           9   2.0487256856288058E-003          12     1838344           0
</event>
<event>
      6   9999 -3.45752E-01  4.48369E+00 -1.00000E+00  2.38017E-01
       1    -1     0     0   501     0  0.000000000E+00  0.000000000E+00  6.851950559E+01  6.851950559E+01  0.000000000E+00  0.00000E+00  9.000E+00
      21    -1     0     0   502   503  0.000000000E+00  0.000000000E+00 -2.492056403E+03  2.492056403E+03  0.000000000E+00  0.00000E+00  9.000E+00
      25     1     1     2     0     0  8.218680419E+00  1.999559100E+01 -1.480430399E+03  1.485855525E+03  1.250004148E+02  0.00000E+00  9.000E+00
       5     1     1     2   501     0  5.110963061E-02 -3.361981114E-01 -5.586601636E+00  7.340862293E+00  4.750000000E+00  0.00000E+00  9.000E+00
      -5     1     1     2     0   503 -4.913488912E+00 -2.263238495E+01 -1.002232736E+03  1.002511540E+03  4.750000000E+00  0.00000E+00  9.000E+00
       1     1     1     2   502     0 -3.356301137E+00  2.972992061E+00  6.471283961E+01  6.486798169E+01  1.348699152E-06  0.00000E+00  9.000E+00
#rwgt            1           9 -0.43989023199203242               12     1841219           0
</event>
<event>
      6   9999 -3.45752E-01  1.60282E+01 -1.00000E+00  1.67913E-01
      21    -1     0     0   511   502  0.000000000E+00  0.000000000E+00  1.104241299E+01  1.104241299E+01  0.000000000E+00  0.00000E+00  9.000E+00
      21    -1     0     0   502   503  0.000000000E+00  0.000000000E+00 -1.758801778E+03  1.758801778E+03  0.000000000E+00  0.00000E+00  9.000E+00
      25     1     1     2     0     0 -7.515379528E+00  6.803305001E+01 -1.009568153E+03  1.019577051E+03  1.249981269E+02  0.00000E+00  9.000E+00
       5     1     1     2   501     0 -2.157055102E+01 -6.696136921E+01 -2.917423739E+02  3.001421144E+02  4.750000000E+00  0.00000E+00  9.000E+00
      -5     1     1     2     0   503  3.475357789E+01  1.392106015E+01 -3.753269914E+02  3.772194587E+02  4.750000000E+00  0.00000E+00  9.000E+00
      21     1     1     2   511   501 -5.667647344E+00 -1.499274095E+01 -7.112184758E+01  7.290556708E+01  9.536743164E-07  0.00000E+00  9.000E+00
#rwgt            1           9 -0.47503226250309988               12     1845603           0
</event>
<event>
      6   9999  3.45752E-01  5.30926E+00 -1.00000E+00  2.21734E-01
      21    -1     0     0   502   503  0.000000000E+00  0.000000000E+00  5.736966571E+01  5.736966571E+01  0.000000000E+00  0.00000E+00  9.000E+00
      21    -1     0     0   512   502  0.000000000E+00  0.000000000E+00 -6.169367638E+02  6.169367638E+02  0.000000000E+00  0.00000E+00  9.000E+00
      25     1     1     2     0     0  1.695500819E-01  3.552849362E+00 -1.419497820E+01  1.258614222E+02  1.250077946E+02  0.00000E+00  9.000E+00
       5     1     1     2   501     0 -2.265928302E+00  9.825365285E-01 -3.374220164E+01  3.416428662E+01  4.750000000E+00  0.00000E+00  9.000E+00
      -5     1     1     2     0   503 -3.120687034E+00 -5.520505632E+00 -1.065684561E+01  1.327951537E+01  4.750000000E+00  0.00000E+00  9.000E+00
      21     1     1     2   512   501  5.217065254E+00  9.851197416E-01 -5.009730727E+02  5.010012054E+02  5.394796609E-06  0.00000E+00  9.000E+00
#rwgt            1           9   3.6670703518294523E-005          12     1847963           0
</event>
<event>
      6   9999  3.45752E-01  1.96320E+02 -1.00000E+00  1.09174E-01
      21    -1     0     0   511   502  0.000000000E+00  0.000000000E+00  5.718262944E+01  5.718262944E+01  0.000000000E+00  0.00000E+00  9.000E+00
       1    -1     0     0   501     0  0.000000000E+00  0.000000000E+00 -1.776561933E+03  1.776561933E+03  0.000000000E+00  0.00000E+00  9.000E+00
      25     1     1     2     0     0 -1.749805332E+01 -1.243224743E+02 -1.971482107E+02  2.650553064E+02  1.249985558E+02  0.00000E+00  9.000E+00
       5     1     1     2   501     0 -2.925981022E+01 -5.368017216E+01 -1.045145756E+03  1.046943127E+03  4.750000000E+00  0.00000E+00  9.000E+00
      -5     1     1     2     0   502 -7.269110264E+00 -1.073693808E+01 -2.021140872E+01  2.447826272E+01  4.750000000E+00  0.00000E+00  9.000E+00
       1     1     1     2   511     0  5.402697381E+01  1.887395846E+02 -4.568739279E+02  4.972678661E+02  5.394796609E-06  0.00000E+00  9.000E+00
#rwgt            1           1   3.8322898035469581E-006          12     1851962           0
</event>
<event>
      6   9999  3.45752E-01  3.26580E+01 -1.00000E+00  1.45492E-01
      21    -1     0     0   512   502  0.000000000E+00  0.000000000E+00  6.011981843E+00  6.011981843E+00  0.000000000E+00  0.00000E+00  9.000E+00
      21    -1     0     0   502   503  0.000000000E+00  0.000000000E+00 -2.077551198E+03  2.077551198E+03  0.000000000E+00  0.00000E+00  9.000E+00
      25     1     1     2     0     0 -3.246016498E+01  1.003189574E+01 -1.728887653E+03  1.733733830E+03  1.250047135E+02  0.00000E+00  9.000E+00
       5     1     1     2   501     0 -7.052889710E+00 -1.023014549E+00 -9.195496944E+00  1.256620373E+01  4.750000000E+00  0.00000E+00  9.000E+00
      -5     1     1     2     0   503  6.855178946E+00 -8.916060131E+00 -1.777652828E+02  1.781840281E+02  4.750000000E+00  0.00000E+00  9.000E+00
      21     1     1     2   512   501  3.265787575E+01 -9.282105715E-02 -1.556907836E+02  1.590791173E+02  0.000000000E+00  0.00000E+00  9.000E+00
#rwgt            1           9   1.2106343088350919E-004          12     1852118           0
</event>
<event>
      6   9999  3.45752E-01  8.98529E+00 -1.00000E+00  1.92225E-01
      21    -1     0     0   511   503  0.000000000E+00  0.000000000E+00  1.031065229E+02  1.031065229E+02  0.000000000E+00  0.00000E+00  9.000E+00
      21    -1     0     0   501   502  0.000000000E+00  0.000000000E+00 -1.971836271E+02  1.971836271E+02  0.000000000E+00  0.00000E+00  9.000E+00
      25     1     1     2     0     0 -5.352402449E+00 -7.557155317E+00 -1.299254752E+02  1.805331392E+02  1.250033056E+02  0.00000E+00  9.000E+00
       5     1     1     2   501     0 -3.511652075E-01 -3.790609110E-01 -2.791540448E+01  2.832135786E+01  4.750000000E+00  0.00000E+00  9.000E+00
      -5     1     1     2     0   503 -1.404771295E+00  2.440136577E+00 -1.301238401E+01  1.413549740E+01  4.750000000E+00  0.00000E+00  9.000E+00
      21     1     1     2   511   502  7.108338951E+00  5.496079652E+00  7.677615954E+01  7.730015555E+01  1.348699152E-06  0.00000E+00  9.000E+00
#rwgt            1           9   1.2804588166498757E-003          12     1853118           0
</event>
<event>
      6   9999  3.45752E-01  1.90731E+01 -1.00000E+00  1.61799E-01
      21    -1     0     0   501   502  0.000000000E+00  0.000000000E+00  3.711943553E+01  3.711943553E+01  0.000000000E+00  0.00000E+00  9.000E+00
      21    -1     0     0   512   503  0.000000000E+00  0.000000000E+00 -5.323485474E+02  5.323485474E+02  0.000000000E+00  0.00000E+00  9.000E+00
      25     1     1     2     0     0 -1.198947410E+01  2.754415205E+01 -4.062665399E+02  4.261221689E+02  1.250006945E+02  0.00000E+00  9.000E+00
       5     1     1     2   501     0  1.683768521E+00  1.172233660E+00  2.247720122E+01  2.306504461E+01  4.750000000E+00  0.00000E+00  9.000E+00
      -5     1     1     2     0   503  2.076907084E+01 -1.276951321E+01 -7.706489130E+01  8.096897394E+01  4.750000000E+00  0.00000E+00  9.000E+00
      21     1     1     2   512   502 -1.046336525E+01 -1.594687250E+01 -3.437488190E+01  3.931179544E+01  6.743495762E-07  0.00000E+00  9.000E+00
#rwgt            1           9   4.0119736313920263E-004          12     1855418           0
</event>
<event>
      6   9999  3.45752E-01  5.05919E+01 -1.00000E+00  1.34515E-01
      21    -1     0     0   501   502  0.000000000E+00  0.000000000E+00  2.396825282E+01  2.396825282E+01  0.000000000E+00  0.00000E+00  9.000E+00
      21    -1     0     0   502   511  0.000000000E+00  0.000000000E+00 -2.297421169E+03  2.297421169E+03  0.000000000E+00  0.00000E+00  9.000E+00
      25     1     1     2     0     0 -3.625247143E+01 -7.979134475E+01 -2.957649927E+02  3.328400154E+02  1.249985780E+02  0.00000E+00  9.000E+00
       5     1     1     2   501     0  1.450940919E+00 -8.434914104E-01 -3.990104832E+00  6.426518799E+00  4.750000000E+00  0.00000E+00  9.000E+00
      -5     1     1     2     0   503  8.247886610E+01  6.371118402E+01 -7.322741074E+02  7.396687159E+02  4.750000000E+00  0.00000E+00  9.000E+00
      21     1     1     2   503   511 -4.767733558E+01  1.692365214E+01 -1.241423712E+03  1.242454172E+03  1.525878906E-05  0.00000E+00  9.000E+00
#rwgt            1           9   6.0292897080581353E-004          12     1857454           0
</event>
<event>
      6   9999  3.45752E-01  4.56481E+00 -1.00000E+00  2.36546E-01
      21    -1     0     0   512   502  0.000000000E+00  0.000000000E+00  5.169029815E+02  5.169029815E+02  0.000000000E+00  0.00000E+00  9.000E+00
      21    -1     0     0   502   503  0.000000000E+00  0.000000000E+00 -5.096625024E+01  5.096625024E+01  0.000000000E+00  0.00000E+00  9.000E+00
      25     1     1     2     0     0  1.378377074E+01  4.772562478E+01  4.900651727E+01  1.431608967E+02  1.250027040E+02  0.00000E+00  9.000E+00
       5     1     1     2   501     0  7.509843850E-01  7.625684986E-01  2.511564851E+02  2.512036783E+02  4.750000000E+00  0.00000E+00  9.000E+00
      -5     1     1     2     0   503 -1.478219519E+01 -4.393009038E+01  1.531609938E+02  1.600912823E+02  4.750000000E+00  0.00000E+00  9.000E+00
      21     1     1     2   512   501  2.474400638E-01 -4.558102901E+00  1.261273501E+01  1.341337441E+01  1.685873940E-07  0.00000E+00  9.000E+00
#rwgt            1           9   1.3739487717302642E-003          12     1858384           0
</event>
<event>
      6   9999  3.45752E-01  7.47841E+00 -1.00000E+00  2.01546E-01
      21    -1     0     0   501   511  0.000000000E+00  0.000000000E+00  3.087005789E+02  3.087005789E+02  0.000000000E+00  0.00000E+00  9.000E+00
      21    -1     0     0   502   503  0.000000000E+00  0.000000000E+00 -1.169945378E+03  1.169945378E+03  0.000000000E+00  0.00000E+00  9.000E+00
      25     1     1     2     0     0  1.830895500E+00  2.946460392E+01 -7.497225632E+02  7.606403505E+02  1.249732208E+02  0.00000E+00  9.000E+00
       5     1     1     2   501     0 -6.762078496E+00  1.039099422E+00  2.673911171E+01  2.800621410E+01  4.750000000E+00  0.00000E+00  9.000E+00
      -5     1     1     2     0   503 -1.981730233E+00 -3.335646001E+01 -4.133918047E+02  4.147673172E+02  4.750000000E+00  0.00000E+00  9.000E+00
      21     1     1     2   502   511  6.912913229E+00  2.852756676E+00  2.751304573E+02  2.752320750E+02  6.607249480E-06  0.00000E+00  9.000E+00
#rwgt            1           9   2.3913901249564089E-002          12     1863898           0
</event>
<event>
      6   9999  3.45752E-01  1.61944E+01 -1.00000E+00  1.67537E-01
      21    -1     0     0   501   502  0.000000000E+00  0.000000000E+00  2.304905294E+01  2.304905294E+01  0.000000000E+00  0.00000E+00  9.000E+00
       2    -1     0     0   502     0  0.000000000E+00  0.000000000E+00 -1.297941437E+03  1.297941437E+03  0.000000000E+00  0.00000E+00  9.000E+00
      25     1     1     2     0     0 -9.387805706E+01 -4.381938438E+01 -3.905899978E+02  4.229096898E+02  1.247350442E+02  0.00000E+00  9.000E+00
       5     1     1     2   501     0  1.087592210E+02  4.818465708E+01 -5.468606966E+02  5.596691106E+02  4.750000000E+00  0.00000E+00  9.000E+00
      -5     1     1     2     0   503  1.301511604E+00 -3.749150344E+00 -3.546641165E+01  3.600248486E+01  4.750000000E+00  0.00000E+00  9.000E+00
       2     1     1     2   503     0 -1.618267559E+01 -6.161223505E-01 -3.019752779E+02  3.024092047E+02  5.394796609E-06  0.00000E+00  9.000E+00
#rwgt            1           9   2.5878121092530446E-002          12     1868560           0
</event>
<event>
      6   9999  3.45752E-01  1.62657E+01 -1.00000E+00  1.67378E-01
      21    -1     0     0   511   502  0.000000000E+00  0.000000000E+00  1.211647073E+02  1.211647073E+02  0.000000000E+00  0.00000E+00  9.000E+00
      21    -1     0     0   502   503  0.000000000E+00  0.000000000E+00 -1.339078735E+03  1.339078735E+03  0.000000000E+00  0.00000E+00  9.000E+00
      25     1     1     2     0     0 -2.114834223E+01  2.844058278E+01 -1.183436714E+03  1.190547364E+03  1.249978096E+02  0.00000E+00  9.000E+00
       5     1     1     2   501     0  7.789486799E+00  6.229323291E+00  6.059782920E+01  6.159659063E+01  4.750000000E+00  0.00000E+00  9.000E+00
      -5     1     1     2     0   503  4.742012489E+00 -2.087416338E+01 -1.496009356E+02  1.511992719E+02  4.750000000E+00  0.00000E+00  9.000E+00
      21     1     1     2   511   501  8.616842943E+00 -1.379574269E+01  5.452579226E+01  5.690021547E+01  2.132480600E-06  0.00000E+00  9.000E+00
#rwgt            1           9   9.0831206238354122E-003          12     1870711           0
</event>
<event>
      6   9999  3.45752E-01  5.61439E+00 -1.00000E+00  2.18157E-01
      21    -1     0     0   502   503  0.000000000E+00  0.000000000E+00  6.650202566E+00  6.650202566E+00  0.000000000E+00  0.00000E+00  9.000E+00
      21    -1     0     0   501   512  0.000000000E+00  0.000000000E+00 -7.800232533E+02  7.800232533E+02  0.000000000E+00  0.00000E+00  9.000E+00
      25     1     1     2     0     0 -5.527750398E+00 -8.413257105E+00 -6.935043711E+02  7.047524107E+02  1.250052345E+02  0.00000E+00  9.000E+00
       5     1     1     2   501     0  2.478553728E-01  1.261979483E+00 -2.324699954E+01  2.376214452E+01  4.750000000E+00  0.00000E+00  9.000E+00
      -5     1     1     2     0   503  1.945813697E+00  2.634063263E+00 -1.361070643E+01  1.478304129E+01  4.750000000E+00  0.00000E+00  9.000E+00
      21     1     1     2   502   512  3.334081328E+00  4.517214360E+00 -4.301097358E+01  4.337585932E+01  4.768371582E-07  0.00000E+00  9.000E+00
#rwgt            1           9   1.3775764838342442E-002          12     1874334           0
</event>
<event>
      6   9999  3.45752E-01  1.65752E+01 -1.00000E+00  1.66697E-01
      21    -1     0     0   501   511  0.000000000E+00  0.000000000E+00  9.898927713E+00  9.898927713E+00  0.000000000E+00  0.00000E+00  9.000E+00
      21    -1     0     0   502   503  0.000000000E+00  0.000000000E+00 -7.685964307E+02  7.685964307E+02  0.000000000E+00  0.00000E+00  9.000E+00
      25     1     1     2     0     0  1.451615578E+01  1.787090754E+00 -6.539042423E+02  6.659074439E+02  1.250122122E+02  0.00000E+00  9.000E+00
       5     1     1     2   501     0  2.629175741E+00  1.070321100E+00 -8.866057360E-01  5.604170060E+00  4.750000000E+00  0.00000E+00  9.000E+00
      -5     1     1     2     0   503 -5.704355354E-01 -2.755760248E+00 -5.637948829E+01  5.664917308E+01  4.750000000E+00  0.00000E+00  9.000E+00
      21     1     1     2   502   511 -1.657489598E+01 -1.016516062E-01 -4.752716664E+01  5.033457140E+01  1.348699152E-06  0.00000E+00  9.000E+00
#rwgt            1           9   6.0288765525499818E-002          12     1877010           0
</event>
<event>
      6   9999  3.45752E-01  2.55022E+01 -1.00000E+00  1.52551E-01
      21    -1     0     0   501   502  0.000000000E+00  0.000000000E+00  1.647191465E+01  1.647191465E+01  0.000000000E+00  0.00000E+00  9.000E+00
      21    -1     0     0   502   512  0.000000000E+00  0.000000000E+00 -1.802235701E+03  1.802235701E+03  0.000000000E+00  0.00000E+00  9.000E+00
      25     1     1     2     0     0 -3.193251394E+01  4.833597868E+00 -8.716603520E+02  8.811676751E+02  1.249866121E+02  0.00000E+00  9.000E+00
       5     1     1     2   501     0 -4.493817265E-01  5.770522479E+00  6.243522275E+00  9.749099652E+00  4.750000000E+00  0.00000E+00  9.000E+00
      -5     1     1     2     0   503  2.205663159E+01  1.271433254E+01 -4.387738049E+01  5.095033138E+01  4.750000000E+00  0.00000E+00  9.000E+00
      21     1     1     2   503   512  1.032526408E+01 -2.331845289E+01 -8.764695757E+02  8.768405091E+02  1.078959322E-05  0.00000E+00  9.000E+00
#rwgt            1           9   9.0137074290825988E-006          12     1878662           0
</event>
<event>
      6   9999 -3.45752E-01  6.71741E+00 -1.00000E+00  2.07446E-01
      21    -1     0     0   502   503  0.000000000E+00  0.000000000E+00  6.265670651E+03  6.265670651E+03  0.000000000E+00  0.00000E+00  9.000E+00
      21    -1     0     0   501   511  0.000000000E+00  0.000000000E+00 -3.341387851E+01  3.341387851E+01  0.000000000E+00  0.00000E+00  9.000E+00
      25     1     1     2     0     0  9.259842009E+01  7.683889124E-01  2.744326269E+03  2.748732332E+03  1.250108149E+02  0.00000E+00  9.000E+00
       5     1     1     2   501     0 -2.023466526E+01  2.871897764E+01  2.803825999E+02  2.826149079E+02  4.750000000E+00  0.00000E+00  9.000E+00
      -5     1     1     2     0   503 -7.831817621E+01 -3.259679168E+01  3.236703192E+03  3.237818155E+03  4.749999999E+00  0.00000E+00  9.000E+00
      21     1     1     2   502   511  5.954421387E+00  3.109425128E+00 -2.915528956E+01  2.991913381E+01  1.846782373E-06  0.00000E+00  9.000E+00
#rwgt            1           9  -3.6698219253425207E-004          12     1880043           0
</event>
<event>
      6   9999  3.45752E-01  7.09302E+00 -1.00000E+00  2.04411E-01
      21    -1     0     0   501   512  0.000000000E+00  0.000000000E+00  6.023319802E+00  6.023319802E+00  0.000000000E+00  0.00000E+00  9.000E+00
      21    -1     0     0   502   503  0.000000000E+00  0.000000000E+00 -1.193541665E+03  1.193541665E+03  0.000000000E+00  0.00000E+00  9.000E+00
      25     1     1     2     0     0  1.067450354E+01  2.412235460E+00 -1.019447967E+03  1.027140826E+03  1.249974221E+02  0.00000E+00  9.000E+00
       5     1     1     2   501     0  6.592928913E-01 -6.492826060E-01 -9.146474738E+00  1.034778890E+01  4.750000000E+00  0.00000E+00  9.000E+00
      -5     1     1     2     0   503 -7.044707486E+00 -7.412263993E+00 -1.510834024E+02  1.515035529E+02  4.750000000E+00  0.00000E+00  9.000E+00
      21     1     1     2   502   512 -4.289088949E+00  5.649311139E+00 -7.840501481E+00  1.057281721E+01  2.665600750E-07  0.00000E+00  9.000E+00
#rwgt            1           9   3.0139423818517117E-002          12     1884214           0
</event>
<event>
      6   9999  3.45752E-01  7.63192E+00 -1.00000E+00  2.00468E-01
      21    -1     0     0   501   502  0.000000000E+00  0.000000000E+00  5.050859263E+01  5.050859263E+01  0.000000000E+00  0.00000E+00  9.000E+00
      21    -1     0     0   502   511  0.000000000E+00  0.000000000E+00 -1.933051516E+03  1.933051516E+03  0.000000000E+00  0.00000E+00  9.000E+00
      25     1     1     2     0     0  4.451298380E+00  2.102719841E+00 -1.104299400E+03  1.111363284E+03  1.250077905E+02  0.00000E+00  9.000E+00
       5     1     1     2   501     0 -1.154122019E+01 -1.129006936E+00  4.590651800E+01  4.758618828E+01  4.750000000E+00  0.00000E+00  9.000E+00
      -5     1     1     2     0   503  6.096907165E+00  6.593325226E+00 -1.229298358E+02  1.233489004E+02  4.750000000E+00  0.00000E+00  9.000E+00
      21     1     1     2   503   511  9.930146478E-01 -7.567038131E+00 -7.012202053E+02  7.012617360E+02  1.078959322E-05  0.00000E+00  9.000E+00
#rwgt            1           9   2.7376904498213339E-003          12     1887188           0
</event>
<event>
      6   9999  3.45752E-01  3.63446E+00 -1.00000E+00  2.56792E-01
      21    -1     0     0   501   502  0.000000000E+00  0.000000000E+00  2.467872890E+01  2.467872890E+01  0.000000000E+00  0.00000E+00  9.000E+00
      21    -1     0     0   502   512  0.000000000E+00  0.000000000E+00 -1.182376439E+03  1.182376439E+03  0.000000000E+00  0.00000E+00  9.000E+00
      25     1     1     2     0     0  4.836881242E+01 -7.720525671E+00 -3.296005960E+02  3.558953643E+02  1.250032355E+02  0.00000E+00  9.000E+00
       5     1     1     2   501     0 -3.507907501E-01  2.863817118E+00  9.980745603E+00  1.142375969E+01  4.750000000E+00  0.00000E+00  9.000E+00
      -5     1     1     2     0   503 -4.812540340E+01  1.223830746E+00 -8.065493997E+02  8.079987926E+02  4.750000000E+00  0.00000E+00  9.000E+00
      21     1     1     2   503   512  1.073817217E-01  3.632877807E+00 -3.152845968E+01  3.173725101E+01  4.768371582E-07  0.00000E+00  9.000E+00
#rwgt            1           9   5.7822959919091367E-004          12     1891863           0
</event>
<event>
      6   9999  3.45752E-01  1.22067E+01 -1.00000E+00  1.78511E-01
      21    -1     0     0   501   502  0.000000000E+00  0.000000000E+00  1.242702189E+01  1.242702189E+01  0.000000000E+00  0.00000E+00  9.000E+00
      21    -1     0     0   502   511  0.000000000E+00  0.000000000E+00 -9.956392601E+02  9.956392601E+02  0.000000000E+00  0.00000E+00  9.000E+00
      25     1     1     2     0     0 -9.053575485E+00  8.449803463E-01 -6.260558288E+02  6.384781929E+02  1.250032831E+02  0.00000E+00  9.000E+00
       5     1     1     2   501     0 -9.773508627E-01  2.267999055E+00  4.783377433E+00  7.179292033E+00  4.750000000E+00  0.00000E+00  9.000E+00
      -5     1     1     2     0   503 -1.848546852E+00 -3.057388954E-01 -1.728596522E+02  1.729350527E+02  4.750000000E+00  0.00000E+00  9.000E+00
      21     1     1     2   503   511  1.187947320E+01 -2.807240506E+00 -1.890801347E+02  1.894737444E+02  2.697398305E-06  0.00000E+00  9.000E+00
#rwgt            1           9  0.20967497196856905               12     1898470           0
</event>
<event>
      6   9999 -3.45752E-01  4.23348E+00 -1.00000E+00  2.42859E-01
      21    -1     0     0   512   502  0.000000000E+00  0.000000000E+00  1.261861054E+01  1.261861054E+01  0.000000000E+00  0.00000E+00  9.000E+00
      21    -1     0     0   502   503  0.000000000E+00  0.000000000E+00 -7.944566255E+02  7.944566255E+02  0.000000000E+00  0.00000E+00  9.000E+00
      25     1     1     2     0     0 -1.222518174E+01 -1.780526197E+01 -5.735372845E+02  5.873975619E+02  1.249975864E+02  0.00000E+00  9.000E+00
       5     1     1     2   501     0 -2.667958536E+00  7.311638366E-01  3.053636590E+00  6.288068044E+00  4.750000000E+00  0.00000E+00  9.000E+00
      -5     1     1     2     0   503  1.075034645E+01  1.794566724E+01 -2.018291760E+02  2.029659964E+02  4.750000000E+00  0.00000E+00  9.000E+00
      21     1     1     2   512   501  4.142793834E+00 -8.715691060E-01 -9.525191042E+00  1.042360964E+01  0.000000000E+00  0.00000E+00  9.000E+00
#rwgt            1           9  -1.5740988333633927E-002          12     1900431           0
</event>
<event>
      6   9999  3.45752E-01  1.16308E+01 -1.00000E+00  1.80538E-01
      21    -1     0     0   501   502  0.000000000E+00  0.000000000E+00  1.340896177E+01  1.340896177E+01  0.000000000E+00  0.00000E+00  9.000E+00
      21    -1     0     0   502   511  0.000000000E+00  0.000000000E+00 -2.466819209E+03  2.466819209E+03  0.000000000E+00  0.00000E+00  9.000E+00
      25     1     1     2     0     0 -3.356874312E+01  2.007109467E+01 -1.170516043E+03  1.177821373E+03  1.250026774E+02  0.00000E+00  9.000E+00
       5     1     1     2   501     0 -4.696864950E+00 -3.682892485E+00  7.850391662E+00  1.094602150E+01  4.750000000E+00  0.00000E+00  9.000E+00
      -5     1     1     2     0   503  2.837334300E+01 -1.027111514E+01 -8.106681838E+02  8.112434956E+02  4.750000000E+00  0.00000E+00  9.000E+00
      21     1     1     2   503   511  9.892265074E+00 -6.117087046E+00 -4.800764115E+02  4.802172805E+02  1.078959322E-05  0.00000E+00  9.000E+00
#rwgt            1           9   1.9441190041945643E-005          12     1904770           0
</event>
<event>
      6   9999  3.45752E-01  1.11821E+01 -1.00000E+00  1.82223E-01
      21    -1     0     0   501   512  0.000000000E+00  0.000000000E+00  2.724466711E+01  2.724466711E+01  0.000000000E+00  0.00000E+00  9.000E+00
      21    -1     0     0   502   503  0.000000000E+00  0.000000000E+00 -9.881424018E+02  9.881424018E+02  0.000000000E+00  0.00000E+00  9.000E+00
      25     1     1     2     0     0  1.009836253E+01 -1.355154211E+01 -6.876810255E+02  6.991537503E+02  1.250006101E+02  0.00000E+00  9.000E+00
       5     1     1     2   501     0  4.699958677E+00 -2.935545923E+00  1.151722085E+01  1.363509873E+01  4.750000000E+00  0.00000E+00  9.000E+00
      -5     1     1     2     0   503 -1.149659761E+01  5.803507595E+00 -2.899391818E+02  2.902639215E+02  4.750000000E+00  0.00000E+00  9.000E+00
      21     1     1     2   502   512 -3.301723598E+00  1.068358044E+01  5.205251803E+00  1.233429836E+01  2.064765462E-07  0.00000E+00  9.000E+00
#rwgt            1           9   2.1740076213027435               12     1907417           0
</event>
<event>
      6   9999  3.45752E-01  4.50406E+00 -1.00000E+00  2.37643E-01
      21    -1     0     0   501   502  0.000000000E+00  0.000000000E+00  2.074218204E+03  2.074218204E+03  0.000000000E+00  0.00000E+00  9.000E+00
      21    -1     0     0   502   511  0.000000000E+00  0.000000000E+00 -5.261580141E+00  5.261580141E+00  0.000000000E+00  0.00000E+00  9.000E+00
      25     1     1     2     0     0 -1.941339253E+01  1.213202755E+01  8.431432884E+02  8.526707707E+02  1.250310863E+02  0.00000E+00  9.000E+00
       5     1     1     2   501     0 -1.437742669E+00 -1.584408947E+00  9.007459362E+02  9.007610014E+02  4.750000000E+00  0.00000E+00  9.000E+00
      -5     1     1     2     0   503  1.642425561E+01 -9.717372708E+00  2.938538024E+02  2.945111258E+02  4.750000000E+00  0.00000E+00  9.000E+00
      21     1     1     2   503   511  4.426879595E+00 -8.302458905E-01  3.121359702E+01  3.153688650E+01  0.000000000E+00  0.00000E+00  9.000E+00
#rwgt            1           9   2.4046452780345287E-004          12     1911307           0
</event>
<event>
      6   9999  3.45752E-01  6.28739E+00 -1.00000E+00  2.11266E-01
      21    -1     0     0   501   502  0.000000000E+00  0.000000000E+00  4.769154926E+01  4.769154926E+01  0.000000000E+00  0.00000E+00  9.000E+00
      21    -1     0     0   512   503  0.000000000E+00  0.000000000E+00 -2.004216096E+02  2.004216096E+02  0.000000000E+00  0.00000E+00  9.000E+00
      25     1     1     2     0     0 -3.386323256E-01 -3.683558810E+00 -1.156755846E+02  1.703465822E+02  1.249937355E+02  0.00000E+00  9.000E+00
       5     1     1     2   501     0  2.534781628E-01 -2.419368088E+00  1.916494380E+01  1.989409873E+01  4.750000000E+00  0.00000E+00  9.000E+00
      -5     1     1     2     0   503  5.579878829E-01 -1.666595301E-01 -8.617500560E+00  9.857126446E+00  4.750000000E+00  0.00000E+00  9.000E+00
      21     1     1     2   512   502 -4.728337201E-01  6.269586428E+00 -4.760191903E+01  4.801535152E+01  6.743495762E-07  0.00000E+00  9.000E+00
#rwgt            1           9   3.8737335788249083E-004          12     1916009           0
</event>
<event>
      6   9999  3.45752E-01  2.76811E+00 -1.00000E+00  2.86380E-01
      21    -1     0     0   501   502  0.000000000E+00  0.000000000E+00  8.909320464E+00  8.909320464E+00  0.000000000E+00  0.00000E+00  9.000E+00
      21    -1     0     0   502   511  0.000000000E+00  0.000000000E+00 -9.070533949E+02  9.070533949E+02  0.000000000E+00  0.00000E+00  9.000E+00
      25     1     1     2     0     0  5.217679309E+00  1.117936956E+01 -6.751780590E+02  6.867619338E+02  1.249973596E+02  0.00000E+00  9.000E+00
       5     1     1     2   501     0  3.112596617E-01 -8.897303857E-01  1.882162610E-01  4.846279820E+00  4.750000000E+00  0.00000E+00  9.000E+00
      -5     1     1     2     0   503 -3.271437670E+00 -1.189155200E+01 -7.376562070E+01  7.494024693E+01  4.750000000E+00  0.00000E+00  9.000E+00
      21     1     1     2   503   511 -2.257501301E+00  1.601912831E+00 -1.493886110E+02  1.494142547E+02  0.000000000E+00  0.00000E+00  9.000E+00
#rwgt            1           9   2.4278460318511732E-004          12     1919546           0
</event>
<event>
      6   9999  3.45752E-01  1.04629E+01 -1.00000E+00  1.85147E-01
      21    -1     0     0   501   512  0.000000000E+00  0.000000000E+00  1.548721354E+01  1.548721354E+01  0.000000000E+00  0.00000E+00  9.000E+00
      21    -1     0     0   502   503  0.000000000E+00  0.000000000E+00 -8.066158212E+02  8.066158212E+02  0.000000000E+00  0.00000E+00  9.000E+00
      25     1     1     2     0     0 -3.864646190E+00  1.032508062E+01 -7.368795681E+02  7.474882575E+02  1.250026180E+02  0.00000E+00  9.000E+00
       5     1     1     2   501     0 -2.691290887E-01  1.514184925E-01  3.990262010E+00  6.211284000E+00  4.750000000E+00  0.00000E+00  9.000E+00
      -5     1     1     2     0   503 -1.729693487E+00 -1.810972403E+00 -5.767604930E+01  5.792547473E+01  4.750000000E+00  0.00000E+00  9.000E+00
      21     1     1     2   502   512  5.863468766E+00 -8.665526708E+00 -5.632523287E-01  1.047801853E+01  4.592846336E-08  0.00000E+00  9.000E+00
#rwgt            1           9   9.0720828092026617E-005          12     1925465           0
</event>
<event>
      6   9999  3.45752E-01  7.08412E+00 -1.00000E+00  2.04480E-01
      21    -1     0     0   501   502  0.000000000E+00  0.000000000E+00  2.327775083E+01  2.327775083E+01  0.000000000E+00  0.00000E+00  9.000E+00
      21    -1     0     0   511   503  0.000000000E+00  0.000000000E+00 -3.285669552E+03  3.285669552E+03  0.000000000E+00  0.00000E+00  9.000E+00
      25     1     1     2     0     0  4.942477429E+01  1.930603245E+01 -2.481395824E+02  2.828688119E+02  1.250039245E+02  0.00000E+00  9.000E+00
       5     1     1     2   501     0 -1.358114035E+00  5.641698417E-01  3.587841450E+00  6.131710007E+00  4.750000000E+00  0.00000E+00  9.000E+00
      -5     1     1     2     0   503 -5.189366908E+01 -1.390876867E+01 -6.929093453E+02  6.950052734E+02  4.750000000E+00  0.00000E+00  9.000E+00
      21     1     1     2   511   502  3.827008827E+00 -5.961433615E+00 -2.324930715E+03  2.324941508E+03  3.051757812E-05  0.00000E+00  9.000E+00
#rwgt            1           9   1.6197678465349997E-003          12     1927540           0
</event>
<event>
      6   9999  3.45752E-01  3.37219E+01 -1.00000E+00  1.44626E-01
      21    -1     0     0   501   512  0.000000000E+00  0.000000000E+00  1.056789193E+02  1.056789193E+02  0.000000000E+00  0.00000E+00  9.000E+00
      21    -1     0     0   502   503  0.000000000E+00  0.000000000E+00 -1.059255415E+03  1.059255415E+03  0.000000000E+00  0.00000E+00  9.000E+00
      25     1     1     2     0     0 -3.552143746E+01 -3.672856826E+01 -4.183753219E+02  4.396290837E+02  1.250002441E+02  0.00000E+00  9.000E+00
       5     1     1     2   501     0 -1.054080336E+01 -3.940587525E+00  8.099917274E+00  1.465632715E+01  4.750000000E+00  0.00000E+00  9.000E+00
      -5     1     1     2     0   503  1.240108943E+01  3.864583751E+01 -6.228804945E+02  6.242194812E+02  4.750000000E+00  0.00000E+00  9.000E+00
      21     1     1     2   502   512  3.366115140E+01  2.023318270E+00  7.957940371E+01  8.642944189E+01  4.046097457E-06  0.00000E+00  9.000E+00
#rwgt            1           9   7.1582362137565154E-004          12     1931557           0
</event>
<event>
      6   9999  3.45752E-01  6.14984E+00 -1.00000E+00  2.12577E-01
      21    -1     0     0   511   502  0.000000000E+00  0.000000000E+00  1.911431050E+01  1.911431050E+01  0.000000000E+00  0.00000E+00  9.000E+00
      21    -1     0     0   502   503  0.000000000E+00  0.000000000E+00 -1.728438625E+03  1.728438625E+03  0.000000000E+00  0.00000E+00  9.000E+00
      25     1     1     2     0     0  8.804530872E+01  2.015128218E+01 -1.213695282E+03  1.223453732E+03  1.249989887E+02  0.00000E+00  9.000E+00
       5     1     1     2   501     0 -2.161954846E-01  3.828688945E+00  9.180208587E+00  1.102471447E+01  4.750000000E+00  0.00000E+00  9.000E+00
      -5     1     1     2     0   503 -8.237264608E+01 -2.114316971E+01 -4.810374736E+02  4.885201122E+02  4.750000000E+00  0.00000E+00  9.000E+00
      21     1     1     2   511   501 -5.456467158E+00 -2.836801411E+00 -2.377176748E+01  2.455437650E+01  4.768371582E-07  0.00000E+00  9.000E+00
#rwgt            1           9   2.4933753381765910E-004          12     1933279           0
</event>
<event>
      6   9999  3.45752E-01  4.11467E+00 -1.00000E+00  2.45336E-01
      21    -1     0     0   512   502  0.000000000E+00  0.000000000E+00  1.262973330E+02  1.262973330E+02  0.000000000E+00  0.00000E+00  9.000E+00
      21    -1     0     0   502   503  0.000000000E+00  0.000000000E+00 -6.519097909E+02  6.519097909E+02  0.000000000E+00  0.00000E+00  9.000E+00
      25     1     1     2     0     0 -3.461402545E+01 -1.808011725E+01 -5.515148231E+02  5.668496943E+02  1.249998174E+02  0.00000E+00  9.000E+00
       5     1     1     2   501     0  6.631220439E+00 -2.959139242E+00  4.319440752E+01  4.405733686E+01  4.750000000E+00  0.00000E+00  9.000E+00
      -5     1     1     2     0   503  2.869415485E+01  2.509197009E+01 -8.823715995E+01  9.623575417E+01  4.750000000E+00  0.00000E+00  9.000E+00
      21     1     1     2   512   501 -7.113498384E-01 -4.052713596E+00  7.094511762E+01  7.106433859E+01  1.348699152E-06  0.00000E+00  9.000E+00
#rwgt            1           9   2.9302675614324589E-004          12     1938208           0
</event>
<event>
      6   9999 -3.45752E-01  1.15578E+01 -1.00000E+00  1.80805E-01
      21    -1     0     0   501   502  0.000000000E+00  0.000000000E+00  1.690006159E+01  1.690006159E+01  0.000000000E+00  0.00000E+00  9.000E+00
      21    -1     0     0   502   511  0.000000000E+00  0.000000000E+00 -7.510566418E+02  7.510566418E+02  0.000000000E+00  0.00000E+00  9.000E+00
      25     1     1     2     0     0  2.560513288E+01 -2.088170764E+00 -2.988829350E+02  3.249901469E+02  1.250104135E+02  0.00000E+00  9.000E+00
       5     1     1     2   501     0  1.145986003E+00  1.425611118E+00  1.410976034E+00  5.281950809E+00  4.750000000E+00  0.00000E+00  9.000E+00
      -5     1     1     2     0   503 -1.607285373E+01  5.085036118E+00 -2.224433989E+02  2.231318499E+02  4.750000000E+00  0.00000E+00  9.000E+00
      21     1     1     2   503   511 -1.067826515E+01 -4.422476473E+00 -2.142412223E+02  2.145527557E+02  2.697398305E-06  0.00000E+00  9.000E+00
#rwgt            1           9 -0.17375936422763810               12     1944034           0
</event>
<event>
      6   9999  3.45752E-01  1.25595E+01 -1.00000E+00  1.77338E-01
      -2    -1     0     0     0   503  0.000000000E+00  0.000000000E+00  2.630627303E+02  2.630627303E+02  0.000000000E+00  0.00000E+00  9.000E+00
      21    -1     0     0   501   502  0.000000000E+00  0.000000000E+00 -6.902049531E+02  6.902049531E+02  0.000000000E+00  0.00000E+00  9.000E+00
      25     1     1     2     0     0  1.380304108E+01 -5.843150148E+00 -1.906154549E+02  2.284405098E+02  1.250045940E+02  0.00000E+00  9.000E+00
       5     1     1     2   501     0 -2.619104891E+01  1.131379318E+01 -4.629594921E+02  4.638620773E+02  4.750000000E+00  0.00000E+00  9.000E+00
      -5     1     1     2     0   503  2.406918186E-01 -2.279506361E+00 -1.669751857E+01  1.751067412E+01  4.750000000E+00  0.00000E+00  9.000E+00
      -2     1     1     2     0   502  1.214731601E+01 -3.191136672E+00  2.431302428E+02  2.434544220E+02  4.672030912E-06  0.00000E+00  9.000E+00
#rwgt            1           9   1.9235341803200207E-002          12     1946414           0
</event>
<event>
      6   9999  3.45752E-01  5.42631E+01 -1.00000E+00  1.32913E-01
      21    -1     0     0   501   502  0.000000000E+00  0.000000000E+00  1.522409327E+01  1.522409327E+01  0.000000000E+00  0.00000E+00  9.000E+00
      21    -1     0     0   502   511  0.000000000E+00  0.000000000E+00 -3.794816282E+03  3.794816282E+03  0.000000000E+00  0.00000E+00  9.000E+00
      25     1     1     2     0     0 -1.234755512E+01 -9.201731449E+01 -1.512402293E+03  1.520396295E+03  1.249981959E+02  0.00000E+00  9.000E+00
       5     1     1     2   501     0  1.309123138E+02  7.960711918E+01 -6.794909852E+02  6.965672177E+02  4.750000000E+00  0.00000E+00  9.000E+00
      -5     1     1     2     0   503 -6.981864362E+01 -1.142896007E+01 -1.119636695E+03  1.121879742E+03  4.750000000E+00  0.00000E+00  9.000E+00
      21     1     1     2   503   511 -4.874611507E+01  2.383915537E+01 -4.680622150E+02  4.711971203E+02  0.000000000E+00  0.00000E+00  9.000E+00
#rwgt            1           9  0.45821745781542350               12     1949756           0
</event>
<event>
      6   9999  3.45752E-01  2.28510E+01 -1.00000E+00  1.55915E-01
      21    -1     0     0   502   512  0.000000000E+00  0.000000000E+00  4.782022427E+02  4.782022427E+02  0.000000000E+00  0.00000E+00  9.000E+00
      21    -1     0     0   501   502  0.000000000E+00  0.000000000E+00 -9.159746012E+02  9.159746012E+02  0.000000000E+00  0.00000E+00  9.000E+00
      25     1     1     2     0     0 -3.797185763E+01  1.996140235E+01 -5.838833930E+02  5.986523733E+02  1.249981115E+02  0.00000E+00  9.000E+00
       5     1     1     2   501     0 -5.560952741E-01 -1.475078647E-01 -2.566972891E+02  2.567418776E+02  4.750000000E+00  0.00000E+00  9.000E+00
      -5     1     1     2     0   503  4.730133765E+01  1.285775193E+00 -5.935377542E+01  7.605591968E+01  4.750000000E+00  0.00000E+00  9.000E+00
      21     1     1     2   503   512 -8.773384747E+00 -2.109966968E+01  4.621620991E+02  4.627266733E+02  5.394796609E-06  0.00000E+00  9.000E+00
#rwgt            1           9   17.788200812894189               12     1951128           0
</event>
<event>
      6   9999  3.45752E-01  1.06172E+01 -1.00000E+00  1.84495E-01
      21    -1     0     0   501   502  0.000000000E+00  0.000000000E+00  2.353170095E+01  2.353170095E+01  0.000000000E+00  0.00000E+00  9.000E+00
      21    -1     0     0   502   511  0.000000000E+00  0.000000000E+00 -1.280912259E+03  1.280912259E+03  0.000000000E+00  0.00000E+00  9.000E+00
      25     1     1     2     0     0 -3.107492989E+01 -1.048491809E+01 -8.777848506E+02  8.872450911E+02  1.249880915E+02  0.00000E+00  9.000E+00
       5     1     1     2   501     0 -1.919926936E+00  8.971947223E-01  1.513858189E+01  1.600719336E+01  4.750000000E+00  0.00000E+00  9.000E+00
      -5     1     1     2     0   503  4.339141387E+01  1.174118448E+01 -1.612414490E+02  1.674575695E+02  4.750000000E+00  0.00000E+00  9.000E+00
      21     1     1     2   503   511 -1.039655705E+01 -2.153461114E+00 -2.334928400E+02  2.337341056E+02  3.814697266E-06  0.00000E+00  9.000E+00
#rwgt            1           9   2.0441984241344449E-004          12     1952578           0
</event>
<event>
      6   9999 -3.45752E-01  5.95723E+01 -1.00000E+00  1.30839E-01
      21    -1     0     0   501   502  0.000000000E+00  0.000000000E+00  7.190627881E+02  7.190627881E+02  0.000000000E+00  0.00000E+00  9.000E+00
      -1    -1     0     0     0   503  0.000000000E+00  0.000000000E+00 -6.525970024E+02  6.525970024E+02  0.000000000E+00  0.00000E+00  9.000E+00
      25     1     1     2     0     0 -9.176429296E+01  3.004812699E+02  2.890359592E+02  4.448318464E+02  1.249956273E+02  0.00000E+00  9.000E+00
       5     1     1     2   501     0 -2.836649492E+00 -3.288469087E-01  3.731804739E+01  3.772736250E+01  4.750000000E+00  0.00000E+00  9.000E+00
      -5     1     1     2     0   503  9.301301985E+01 -2.406012814E+02  2.597227289E+02  3.660858599E+02  4.750000000E+00  0.00000E+00  9.000E+00
      -1     1     1     2     0   502  1.587922594E+00 -5.955114166E+01 -5.196109498E+02  5.230147217E+02  0.000000000E+00  0.00000E+00  9.000E+00
#rwgt            1           9 -0.50974575729701477               12     1955506           0
</event>
<event>
      6   9999  3.45752E-01  1.67251E+01 -1.00000E+00  1.66374E-01
      21    -1     0     0   501   502  0.000000000E+00  0.000000000E+00  7.961536299E+01  7.961536299E+01  0.000000000E+00  0.00000E+00  9.000E+00
      21    -1     0     0   511   503  0.000000000E+00  0.000000000E+00 -1.542303431E+03  1.542303431E+03  0.000000000E+00  0.00000E+00  9.000E+00
      25     1     1     2     0     0  2.154751772E+01 -2.147164164E+02 -6.400325161E+02  6.869108958E+02  1.250500787E+02  0.00000E+00  9.000E+00
       5     1     1     2   501     0 -4.803984989E-01 -1.355116371E+01  3.992271893E+01  4.242936256E+01  4.750000000E+00  0.00000E+00  9.000E+00
      -5     1     1     2     0   503 -2.181055733E+01  2.115590008E+02 -8.016971085E+02  8.294418168E+02  4.750000000E+00  0.00000E+00  9.000E+00
      21     1     1     2   511   502  7.434381017E-01  1.670857931E+01 -6.088116229E+01  6.313671867E+01  0.000000000E+00  0.00000E+00  9.000E+00
#rwgt            1           9   7.4847996074455173E-005          12     1956715           0
</event>
<event>
      6   9999  3.45752E-01  1.03785E+01 -1.00000E+00  1.85510E-01
      21    -1     0     0   501   502  0.000000000E+00  0.000000000E+00  2.695246734E+01  2.695246734E+01  0.000000000E+00  0.00000E+00  9.000E+00
      21    -1     0     0   512   503  0.000000000E+00  0.000000000E+00 -1.158775635E+03  1.158775635E+03  0.000000000E+00  0.00000E+00  9.000E+00
      25     1     1     2     0     0  7.339809605E+01  3.954894773E-02 -2.440237929E+02  2.838305592E+02  1.249995711E+02  0.00000E+00  9.000E+00
       5     1     1     2   501     0 -1.627887709E+00  5.881954224E-01  3.249270353E+00  6.009679698E+00  4.750000000E+00  0.00000E+00  9.000E+00
      -5     1     1     2     0   503 -8.207657223E+01  5.934708231E-01 -8.144793999E+02  8.186184528E+02  4.750000000E+00  0.00000E+00  9.000E+00
      21     1     1     2   512   502  1.030636389E+01 -1.221215193E+00 -7.656924510E+01  7.726941049E+01  0.000000000E+00  0.00000E+00  9.000E+00
#rwgt            1           9   3.9639807152188673E-004          12     1959834           0
</event>
<event>
      6   9999  3.45752E-01  1.26378E+01 -1.00000E+00  1.77084E-01
      21    -1     0     0   501   502  0.000000000E+00  0.000000000E+00  2.934430803E+03  2.934430803E+03  0.000000000E+00  0.00000E+00  9.000E+00
      -1    -1     0     0     0   503  0.000000000E+00  0.000000000E+00 -1.272339495E+02  1.272339495E+02  0.000000000E+00  0.00000E+00  9.000E+00
      25     1     1     2     0     0 -2.101141444E+02 -6.436955076E+01  1.389720137E+03  1.412531181E+03  1.250235371E+02  0.00000E+00  9.000E+00
       5     1     1     2   501     0  1.401542617E-01 -5.926551174E-01  3.713332335E+02  3.713641120E+02  4.750000000E+00  0.00000E+00  9.000E+00
      -5     1     1     2     0   503  2.033102843E+02  5.422403534E+01  1.152046813E+03  1.171114742E+03  4.750000000E+00  0.00000E+00  9.000E+00
      -1     1     1     2     0   502  6.663705878E+00  1.073817054E+01 -1.059033304E+02  1.066547170E+02  6.325959759E-06  0.00000E+00  9.000E+00
#rwgt            1           9   1.9719846575086509E-002          12     1963360           0
</event>
<event>
      6   9999  3.45752E-01  1.54211E+01 -1.00000E+00  1.69336E-01
      21    -1     0     0   501   502  0.000000000E+00  0.000000000E+00  1.262367493E+01  1.262367493E+01  0.000000000E+00  0.00000E+00  9.000E+00
      21    -1     0     0   502   511  0.000000000E+00  0.000000000E+00 -9.141220038E+02  9.141220038E+02  0.000000000E+00  0.00000E+00  9.000E+00
      25     1     1     2     0     0 -2.426783208E+01  3.709549263E+01 -7.357035600E+02  7.475619801E+02  1.249967307E+02  0.00000E+00  9.000E+00
       5     1     1     2   501     0 -9.714291130E-01  6.763985216E-01  5.127159405E-02  4.895540650E+00  4.750000000E+00  0.00000E+00  9.000E+00
      -5     1     1     2     0   503  2.146696554E+01 -2.281931532E+01 -6.548071151E+01  7.274501936E+01  4.750000000E+00  0.00000E+00  9.000E+00
      21     1     1     2   503   511  3.772295653E+00 -1.495257582E+01 -1.003653290E+02  1.015431386E+02  1.348699152E-06  0.00000E+00  9.000E+00
#rwgt            1           9   9.8410967091142398E-005          12     1966790           0
</event>
<event>
      6   9999  3.45752E-01  1.49160E+01 -1.00000E+00  1.70583E-01
      21    -1     0     0   502   512  0.000000000E+00  0.000000000E+00  3.392750451E+02  3.392750451E+02  0.000000000E+00  0.00000E+00  9.000E+00
      21    -1     0     0   501   502  0.000000000E+00  0.000000000E+00 -2.462333945E+01  2.462333945E+01  0.000000000E+00  0.00000E+00  9.000E+00
      25     1     1     2     0     0 -2.142050510E+01 -4.424538978E+00  1.903765698E+02  2.287941464E+02  1.250004340E+02  0.00000E+00  9.000E+00
       5     1     1     2   501     0 -9.165594721E+00  3.528553088E+00  1.264953197E+01  1.670425013E+01  4.750000000E+00  0.00000E+00  9.000E+00
      -5     1     1     2     0   503  1.569049100E+01  1.158483654E-01  2.144228868E+01  2.699146480E+01  4.750000000E+00  0.00000E+00  9.000E+00
      21     1     1     2   503   512  1.489560882E+01  7.801375247E-01  9.018331514E+01  9.140852316E+01  9.536743164E-07  0.00000E+00  9.000E+00
#rwgt            1           9   44265.436966268157               12     1968701           0
</event>
<event>
      6   9999 -3.45752E-01  1.17495E+01 -1.00000E+00  1.80108E-01
      21    -1     0     0   501   502  0.000000000E+00  0.000000000E+00  1.834987771E+01  1.834987771E+01  0.000000000E+00  0.00000E+00  9.000E+00
      21    -1     0     0   502   511  0.000000000E+00  0.000000000E+00 -1.934415099E+03  1.934415099E+03  0.000000000E+00  0.00000E+00  9.000E+00
      25     1     1     2     0     0  1.019363184E+01  1.315009500E+01 -1.004638484E+03  1.012520994E+03  1.249937853E+02  0.00000E+00  9.000E+00
       5     1     1     2   501     0 -1.672461329E+00 -3.835998638E+00  1.296541561E+01  1.442832334E+01  4.750000000E+00  0.00000E+00  9.000E+00
      -5     1     1     2     0   503  1.371285865E+00 -1.565357491E+01 -9.989694615E+01  1.012367383E+02  4.750000000E+00  0.00000E+00  9.000E+00
      21     1     1     2   503   511 -9.892456373E+00  6.339478548E+00 -8.244952072E+02  8.245789206E+02  1.078959322E-05  0.00000E+00  9.000E+00
#rwgt            1           9  -1.8531116800283188E-003          12     1970315           0
</event>
<event>
      6   9999  3.45752E-01  1.07840E+01 -1.00000E+00  1.83806E-01
      21    -1     0     0   512   502  0.000000000E+00  0.000000000E+00  5.370043284E+02  5.370043284E+02  0.000000000E+00  0.00000E+00  9.000E+00
      21    -1     0     0   502   503  0.000000000E+00  0.000000000E+00 -1.505137766E+02  1.505137766E+02  0.000000000E+00  0.00000E+00  9.000E+00
      25     1     1     2     0     0  7.877525172E+01 -5.716110864E+01 -2.522164576E+00  1.584451789E+02  1.250023231E+02  0.00000E+00  9.000E+00
       5     1     1     2   501     0 -2.734515228E-01  1.275164620E+01  4.053918290E+02  4.056202372E+02  4.750000000E+00  0.00000E+00  9.000E+00
      -5     1     1     2     0   503 -8.815193017E+01  4.922292368E+01 -3.059958697E+01  1.056056638E+02  4.750000000E+00  0.00000E+00  9.000E+00
      21     1     1     2   512   501  9.650129972E+00 -4.813461240E+00  1.422047432E+01  1.784702517E+01  1.685873940E-07  0.00000E+00  9.000E+00
#rwgt            1           9   8.3419251430466622E-004          12     1972887           0
</event>
<event>
      6   9999  3.45752E-01  2.06169E+01 -1.00000E+00  1.59210E-01
      21    -1     0     0   501   502  0.000000000E+00  0.000000000E+00  8.222606026E+01  8.222606026E+01  0.000000000E+00  0.00000E+00  9.000E+00
      21    -1     0     0   502   511  0.000000000E+00  0.000000000E+00 -2.348493077E+02  2.348493077E+02  0.000000000E+00  0.00000E+00  9.000E+00
      25     1     1     2     0     0 -1.210013524E+01 -2.499865817E+01 -2.334590597E+01  1.301619304E+02  1.250030025E+02  0.00000E+00  9.000E+00
       5     1     1     2   501     0 -1.977919549E+00  4.731400791E-01  1.851409723E+01  1.922161085E+01  4.750000000E+00  0.00000E+00  9.000E+00
      -5     1     1     2     0   503 -6.183165681E+00  2.071258783E+01 -4.074328395E+00  2.250345494E+01  4.750000000E+00  0.00000E+00  9.000E+00
      21     1     1     2   503   511  2.026122047E+01  3.812930265E+00 -1.437171103E+02  1.451883717E+02  1.907348633E-06  0.00000E+00  9.000E+00
#rwgt            1           9  0.11681621019305408               12     1976897           0
</event>
<event>
      6   9999  3.45752E-01  7.66906E+01 -1.00000E+00  1.25545E-01
       2    -1     0     0   501     0  0.000000000E+00  0.000000000E+00  1.337139714E+02  1.337139714E+02  0.000000000E+00  0.00000E+00  9.000E+00
      21    -1     0     0   502   503  0.000000000E+00  0.000000000E+00 -1.261443265E+03  1.261443265E+03  0.000000000E+00  0.00000E+00  9.000E+00
      25     1     1     2     0     0 -8.953128661E+00  6.170809564E+01 -8.815513365E+02  8.925546418E+02  1.250319251E+02  0.00000E+00  9.000E+00
       5     1     1     2   501     0  5.651218838E+01 -1.268945569E+02 -1.458817827E+02  2.014942010E+02  4.750000000E+00  0.00000E+00  9.000E+00
      -5     1     1     2     0   503  1.137401329E+01  1.611168554E+01 -1.854238429E+02  1.865302083E+02  4.750000000E+00  0.00000E+00  9.000E+00
       2     1     1     2   502     0 -5.893307300E+01  4.907477568E+01  8.512766821E+01  1.145781855E+02  1.907348633E-06  0.00000E+00  9.000E+00
#rwgt            1           9  0.60717241054720839               12     1978249           0
</event>
<event>
      6   9999  3.45752E-01  6.06301E+01 -1.00000E+00  1.30456E-01
      21    -1     0     0   501   511  0.000000000E+00  0.000000000E+00  3.861137377E+01  3.861137377E+01  0.000000000E+00  0.00000E+00  9.000E+00
      21    -1     0     0   502   503  0.000000000E+00  0.000000000E+00 -8.253353470E+02  8.253353470E+02  0.000000000E+00  0.00000E+00  9.000E+00
      25     1     1     2     0     0 -3.667014292E+01  5.489594063E+00 -6.217225043E+02  6.352472494E+02  1.250014420E+02  0.00000E+00  9.000E+00
       5     1     1     2   501     0 -2.896382133E+01 -5.113269664E+00 -1.186477465E+02  1.223311028E+02  4.750000000E+00  0.00000E+00  9.000E+00
      -5     1     1     2     0   503  5.013963012E+00  7.310694006E-01 -4.519669618E+01  4.572721436E+01  4.750000000E+00  0.00000E+00  9.000E+00
      21     1     1     2   502   511  6.062000124E+01 -1.107393800E+00 -1.157026288E+00  6.064115419E+01  9.012431219E-07  0.00000E+00  9.000E+00
#rwgt            1           9   1.0887222141862110E-003          12     1978906           0
</event>
<event>
      6   9999  3.45752E-01  5.32399E+01 -1.00000E+00  1.33345E-01
      21    -1     0     0   501   502  0.000000000E+00  0.000000000E+00  2.560862946E+03  2.560862946E+03  0.000000000E+00  0.00000E+00  9.000E+00
      21    -1     0     0   512   503  0.000000000E+00  0.000000000E+00 -2.044425707E+03  2.044425707E+03  0.000000000E+00  0.00000E+00  9.000E+00
      25     1     1     2     0     0 -3.172052906E+01 -1.590553710E+01  1.884641370E+03  1.889115532E+03  1.250008896E+02  0.00000E+00  9.000E+00
       5     1     1     2   501     0 -2.654989719E+00 -1.733301320E+00  2.411528437E+02  2.412204590E+02  4.750000000E+00  0.00000E+00  9.000E+00
      -5     1     1     2     0   503 -9.475820664E+00 -1.255292295E+01  4.322947743E+02  4.326068671E+02  4.750000000E+00  0.00000E+00  9.000E+00
      21     1     1     2   512   502  4.385133944E+01  3.019176137E+01 -2.041651749E+03  2.042345795E+03  3.051757812E-05  0.00000E+00  9.000E+00
#rwgt            1           9   2.4956261410762011E-004          12     1979720           0
</event>
<event>
      6   9999  3.45752E-01  9.52653E+00 -1.00000E+00  1.89440E-01
      21    -1     0     0   511   502  0.000000000E+00  0.000000000E+00  7.052593725E+01  7.052593725E+01  0.000000000E+00  0.00000E+00  9.000E+00
      21    -1     0     0   502   503  0.000000000E+00  0.000000000E+00 -1.033081724E+03  1.033081724E+03  0.000000000E+00  0.00000E+00  9.000E+00
      25     1     1     2     0     0  7.464262898E+00 -4.812595607E+00 -9.479313344E+02  9.561790066E+02  1.250024061E+02  0.00000E+00  9.000E+00
       5     1     1     2   501     0 -2.942430809E-01  2.233287269E+00  1.788732511E+01  1.864384753E+01  4.750000000E+00  0.00000E+00  9.000E+00
      -5     1     1     2     0   503  9.493701750E-01 -2.403688526E+00 -8.008487777E+01  8.026723596E+01  4.750000000E+00  0.00000E+00  9.000E+00
      21     1     1     2   511   501 -8.119389992E+00  4.982996865E+00  4.757310078E+01  4.851757073E+01  1.348699152E-06  0.00000E+00  9.000E+00
#rwgt            1           9  0.19047812120455435               12     1980199           0
</event>
<event>
      6   9999  3.45752E-01  2.55127E+01 -1.00000E+00  1.52538E-01
      -3    -1     0     0     0   502  0.000000000E+00  0.000000000E+00  3.520283873E+01  3.520283873E+01  0.000000000E+00  0.00000E+00  9.000E+00
      21    -1     0     0   502   503  0.000000000E+00  0.000000000E+00 -6.147687137E+02  6.147687137E+02  0.000000000E+00  0.00000E+00  9.000E+00
      25     1     1     2     0     0  4.533886242E+01 -1.167931375E+01 -4.618000652E+02  4.807046210E+02  1.250024543E+02  0.00000E+00  9.000E+00
       5     1     1     2   501     0 -2.666289293E+01  4.236748711E+01 -5.952815873E+01  7.792353948E+01  4.750000000E+00  0.00000E+00  9.000E+00
      -5     1     1     2     0   503 -1.993366233E+01 -5.206456714E+00 -6.204468373E+01  6.554817591E+01  4.750000000E+00  0.00000E+00  9.000E+00
      -3     1     1     2     0   501  1.257692833E+00 -2.548171665E+01  3.807032700E+00  2.579521608E+01  2.064765462E-07  0.00000E+00  9.000E+00
#rwgt            1           9   1.1363713744962227               12     1983802           0
</event>
<event>
      6   9999  3.45752E-01  4.14245E+00 -1.00000E+00  2.44746E-01
      21    -1     0     0   501   502  0.000000000E+00  0.000000000E+00  8.442437892E+00  8.442437892E+00  0.000000000E+00  0.00000E+00  9.000E+00
      21    -1     0     0   502   511  0.000000000E+00  0.000000000E+00 -4.034922941E+03  4.034922941E+03  0.000000000E+00  0.00000E+00  9.000E+00
      25     1     1     2     0     0  2.726715845E+01  2.023949905E+01 -1.105619202E+03  1.113181040E+03  1.250002870E+02  0.00000E+00  9.000E+00
       5     1     1     2   501     0  4.103618915E+00 -3.597498558E-01  2.352147716E+00  6.712987937E+00  4.750000000E+00  0.00000E+00  9.000E+00
      -5     1     1     2     0   503 -2.924949481E+01 -1.632165337E+01 -2.357309935E+03  2.357552677E+03  4.750000000E+00  0.00000E+00  9.000E+00
      21     1     1     2   503   511 -2.121282553E+00 -3.558095828E+00 -5.659035135E+02  5.659186748E+02  0.000000000E+00  0.00000E+00  9.000E+00
#rwgt            1           9   30.995109468612071               12     1985136           0
</event>
<event>
      6   9999  3.45752E-01  1.58068E+01 -1.00000E+00  1.68423E-01
      21    -1     0     0   501   502  0.000000000E+00  0.000000000E+00  5.746192321E+00  5.746192321E+00  0.000000000E+00  0.00000E+00  9.000E+00
      21    -1     0     0   512   503  0.000000000E+00  0.000000000E+00 -1.557581085E+03  1.557581085E+03  0.000000000E+00  0.00000E+00  9.000E+00
      25     1     1     2     0     0 -1.124660556E+01 -3.593181703E+00 -9.643475415E+02  9.724865272E+02  1.249978706E+02  0.00000E+00  9.000E+00
       5     1     1     2   501     0 -8.050081238E-01  1.539200017E+00 -3.698288062E+00  6.265541426E+00  4.750000000E+00  0.00000E+00  9.000E+00
      -5     1     1     2     0   503 -1.185440123E+00  1.069320600E+01 -1.361003176E+02  1.366074993E+02  4.750000000E+00  0.00000E+00  9.000E+00
      21     1     1     2   512   502  1.323705381E+01 -8.639224309E+00 -4.476887452E+02  4.479677091E+02  9.344061824E-06  0.00000E+00  9.000E+00
#rwgt            1           9   6.8801356955121955E-003          12     1990862           0
</event>
<event>
      6   9999  3.45752E-01  6.59392E+00 -1.00000E+00  2.08503E-01
      21    -1     0     0   501   502  0.000000000E+00  0.000000000E+00  1.088884148E+01  1.088884148E+01  0.000000000E+00  0.00000E+00  9.000E+00
      21    -1     0     0   511   503  0.000000000E+00  0.000000000E+00 -1.050739206E+03  1.050739206E+03  0.000000000E+00  0.00000E+00  9.000E+00
      25     1     1     2     0     0  3.812001386E+00 -2.147588346E+00 -4.993809638E+02  5.148060522E+02  1.249991235E+02  0.00000E+00  9.000E+00
       5     1     1     2   501     0  1.031792766E+00 -1.258710112E+00  6.754756171E-01  5.066331490E+00  4.750000000E+00  0.00000E+00  9.000E+00
      -5     1     1     2     0   503  7.870992090E-01 -2.485968950E-02 -2.008447024E+01  2.065353693E+01  4.750000000E+00  0.00000E+00  9.000E+00
      21     1     1     2   511   502 -5.630893361E+00  3.431158147E+00 -5.210604056E+02  5.211021264E+02  1.321449896E-05  0.00000E+00  9.000E+00
#rwgt            1           9   2.9024303016891693E-004          12     1992646           0
</event>
<event>
      6   9999 -3.45752E-01  2.98859E+01 -1.00000E+00  1.47945E-01
      21    -1     0     0   501   502  0.000000000E+00  0.000000000E+00  1.031048179E+01  1.031048179E+01  0.000000000E+00  0.00000E+00  9.000E+00
       1    -1     0     0   502     0  0.000000000E+00  0.000000000E+00 -1.919648055E+03  1.919648055E+03  0.000000000E+00  0.00000E+00  9.000E+00
      25     1     1     2     0     0  3.455160048E+01 -1.104202457E+01 -6.898923527E+02  7.020628075E+02  1.249999521E+02  0.00000E+00  9.000E+00
       5     1     1     2   501     0  1.679521104E+00 -2.504442479E+00 -1.362860499E-01  5.627974516E+00  4.750000000E+00  0.00000E+00  9.000E+00
      -5     1     1     2     0   503 -1.903716174E+01 -1.089802621E+01 -9.707027007E+01  9.963122168E+01  4.750000000E+00  0.00000E+00  9.000E+00
       1     1     1     2   503     0 -1.719395984E+01  2.444449325E+01 -1.122238664E+03  1.122636533E+03  0.000000000E+00  0.00000E+00  9.000E+00
#rwgt            1           9  -2.5225528740605387E-004          12     1995495           0
</event>
<event>
      6   9999 -3.45752E-01  3.09659E+01 -1.00000E+00  1.46953E-01
      21    -1     0     0   501   502  0.000000000E+00  0.000000000E+00  1.745126598E+03  1.745126598E+03  0.000000000E+00  0.00000E+00  9.000E+00
      21    -1     0     0   502   511  0.000000000E+00  0.000000000E+00 -8.372050577E+01  8.372050577E+01  0.000000000E+00  0.00000E+00  9.000E+00
      25     1     1     2     0     0 -4.110247311E+01 -4.896039621E+01 -6.593014548E+00  1.405509303E+02  1.249982499E+02  0.00000E+00  9.000E+00
       5     1     1     2   501     0 -1.210304039E+00  2.032993850E+00  7.029110515E+02  7.029310825E+02  4.750000000E+00  0.00000E+00  9.000E+00
      -5     1     1     2     0   503  2.319227366E+01  2.256978478E+01  9.506259669E+02  9.511885029E+02  4.750000000E+00  0.00000E+00  9.000E+00
      21     1     1     2   503   511  1.912050349E+01  2.435761758E+01  1.446208885E+01  3.417658850E+01  7.152557373E-07  0.00000E+00  9.000E+00
#rwgt            1           9  -1.0289919467533005E-003          12     1996704           0
</event>
<event>
      6   9999  3.45752E-01  4.24135E+00 -1.00000E+00  2.42699E-01
      21    -1     0     0   512   502  0.000000000E+00  0.000000000E+00  1.950037323E+02  1.950037323E+02  0.000000000E+00  0.00000E+00  9.000E+00
      21    -1     0     0   502   503  0.000000000E+00  0.000000000E+00 -1.669662471E+03  1.669662471E+03  0.000000000E+00  0.00000E+00  9.000E+00
      25     1     1     2     0     0  4.064965675E+00  1.199926782E+01 -1.416412826E+03  1.421974165E+03  1.249989014E+02  0.00000E+00  9.000E+00
       5     1     1     2   501     0  1.499305273E+00 -1.044658618E+01  9.712321800E+01  9.781033204E+01  4.750000000E+00  0.00000E+00  9.000E+00
      -5     1     1     2     0   503 -1.354372612E+00 -1.037093224E+00 -2.500524803E+02  2.501034092E+02  4.750000000E+00  0.00000E+00  9.000E+00
      21     1     1     2   512   501 -4.209898336E+00 -5.155884172E-01  9.468334920E+01  9.477829758E+01  4.046097457E-06  0.00000E+00  9.000E+00
#rwgt            1           9   2.6068264643612136E-004          12     1999702           0
</event>
<event>
      6   9999 -3.45752E-01  2.62129E+01 -1.00000E+00  1.51732E-01
      21    -1     0     0   501   502  0.000000000E+00  0.000000000E+00  1.658401971E+01  1.658401971E+01  0.000000000E+00  0.00000E+00  9.000E+00
      21    -1     0     0   511   503  0.000000000E+00  0.000000000E+00 -1.552712413E+03  1.552712413E+03  0.000000000E+00  0.00000E+00  9.000E+00
      25     1     1     2     0     0  1.323066569E+01 -2.080408634E+01 -1.026120546E+03  1.033992380E+03  1.249360137E+02  0.00000E+00  9.000E+00
       5     1     1     2   501     0 -1.348576473E+00 -4.158953564E+00  5.954052083E+00  8.782299782E+00  4.750000000E+00  0.00000E+00  9.000E+00
      -5     1     1     2     0   503 -6.539653180E+00 -6.996308144E-01  1.622887034E+00  8.273621294E+00  4.750000000E+00  0.00000E+00  9.000E+00
      21     1     1     2   511   502 -5.342436037E+00  2.566267072E+01 -5.175847871E+02  5.182481318E+02  1.078959322E-05  0.00000E+00  9.000E+00
#rwgt            1           9  -4.0244152038557482E-003          12     2008430           0
</event>
<event>
      6   9999 -3.45752E-01  1.97390E+01 -1.00000E+00  1.60647E-01
      21    -1     0     0   501   502  0.000000000E+00  0.000000000E+00  3.350786859E+01  3.350786859E+01  0.000000000E+00  0.00000E+00  9.000E+00
      21    -1     0     0   502   512  0.000000000E+00  0.000000000E+00 -9.142877345E+02  9.142877345E+02  0.000000000E+00  0.00000E+00  9.000E+00
      25     1     1     2     0     0 -2.738592386E+01  4.326870566E+01 -5.362009522E+02  5.523470826E+02  1.222851944E+02  0.00000E+00  9.000E+00
       5     1     1     2   501     0  9.516882934E-01  2.329471962E+00  1.468428673E+01  1.563722888E+01  4.750000000E+00  0.00000E+00  9.000E+00
      -5     1     1     2     0   503  2.771028908E+01 -2.590045845E+01 -2.661772351E+01  4.658067812E+01  4.750000000E+00  0.00000E+00  9.000E+00
      21     1     1     2   503   512 -1.276053514E+00 -1.969771917E+01 -3.326454769E+02  3.332306134E+02  3.814697266E-06  0.00000E+00  9.000E+00
#rwgt            1           9  -8.3126117393239390E-004          12     2009856           0
</event>
<event>
      6   9999  3.45752E-01  2.55454E+02 -1.00000E+00  1.05339E-01
       1    -1     0     0   501     0  0.000000000E+00  0.000000000E+00  5.297704053E+02  5.297704053E+02  0.000000000E+00  0.00000E+00  9.000E+00
      21    -1     0     0   511   502  0.000000000E+00  0.000000000E+00 -1.728708982E+02  1.728708982E+02  0.000000000E+00  0.00000E+00  9.000E+00
      25     1     1     2     0     0 -1.163885054E+02 -1.123690031E+02  2.705240795E+01  2.062073459E+02  1.249662340E+02  0.00000E+00  9.000E+00
       5     1     1     2   501     0 -6.088940600E+01 -5.698943886E+01  1.556464973E+02  1.766457204E+02  4.750000000E+00  0.00000E+00  9.000E+00
      -5     1     1     2     0   502 -5.114352556E+00 -9.499059922E+00  2.666366795E+00  1.208555970E+01  4.750000000E+00  0.00000E+00  9.000E+00
       1     1     1     2   511     0  1.823922640E+02  1.788575019E+02  1.715342351E+02  3.077026775E+02  1.907348633E-06  0.00000E+00  9.000E+00
#rwgt            1           2   7.0739488883065705E-004          12     2011911           0
</event>
<event>
      6   9999 -3.45752E-01  8.02152E+00 -1.00000E+00  1.97877E-01
      21    -1     0     0   501   502  0.000000000E+00  0.000000000E+00  4.343459704E+01  4.343459704E+01  0.000000000E+00  0.00000E+00  9.000E+00
      21    -1     0     0   502   512  0.000000000E+00  0.000000000E+00 -1.496543416E+02  1.496543416E+02  0.000000000E+00  0.00000E+00  9.000E+00
      25     1     1     2     0     0  1.101103603E+01 -8.146623645E+00 -9.930290922E+01  1.602210258E+02  1.249883952E+02  0.00000E+00  9.000E+00
       5     1     1     2   501     0  1.282395511E+00  4.182819346E-01  8.873166977E+00  1.015456007E+01  4.750000000E+00  0.00000E+00  9.000E+00
      -5     1     1     2     0   503 -4.875461566E+00  4.675721726E+00 -8.874540900E+00  1.212239561E+01  4.750000000E+00  0.00000E+00  9.000E+00
      21     1     1     2   503   512 -7.417969978E+00  3.052619985E+00 -6.915461466E+00  1.059095721E+01  1.192092896E-07  0.00000E+00  9.000E+00
#rwgt            1           9  -4.0762336454473438E-004          12     2012260           0
</event>
<event>
      6   9999  3.45752E-01  7.24328E+00 -1.00000E+00  2.03266E-01
      21    -1     0     0   501   502  0.000000000E+00  0.000000000E+00  8.584852311E+00  8.584852311E+00  0.000000000E+00  0.00000E+00  9.000E+00
       1    -1     0     0   502     0  0.000000000E+00  0.000000000E+00 -2.632474180E+03  2.632474180E+03  0.000000000E+00  0.00000E+00  9.000E+00
      25     1     1     2     0     0  2.581263554E+00 -2.297211568E+01 -6.689875994E+02  6.809572169E+02  1.249957685E+02  0.00000E+00  9.000E+00
       5     1     1     2   501     0 -5.058232034E+00  2.652126071E+00 -1.949192725E+01  2.085946337E+01  4.750000000E+00  0.00000E+00  9.000E+00
      -5     1     1     2     0   503 -4.700779296E+00  1.934788296E+01 -5.295355721E+01  5.677217296E+01  4.750000000E+00  0.00000E+00  9.000E+00
       1     1     1     2   503     0  7.177747776E+00  9.721066510E-01 -1.882456244E+03  1.882470179E+03  2.157918644E-05  0.00000E+00  9.000E+00
#rwgt            1           9   1.1986181340375721E-002          12     2014659           0
</event>
<event>
      6   9999  3.45752E-01  7.39468E+00 -1.00000E+00  2.02149E-01
      21    -1     0     0   511   502  0.000000000E+00  0.000000000E+00  2.808199603E+02  2.808199603E+02  0.000000000E+00  0.00000E+00  9.000E+00
      21    -1     0     0   502   503  0.000000000E+00  0.000000000E+00 -3.148161120E+02  3.148161120E+02  0.000000000E+00  0.00000E+00  9.000E+00
      25     1     1     2     0     0 -3.441449914E+00 -2.668324072E+00 -2.080239471E+02  2.427306222E+02  1.250009154E+02  0.00000E+00  9.000E+00
       5     1     1     2   501     0 -1.050904535E-01 -1.114447421E+01  2.577147891E+02  2.579993903E+02  4.750000000E+00  0.00000E+00  9.000E+00
      -5     1     1     2     0   503  7.002892188E+00  2.034999003E+01 -8.462896721E+01  8.745162768E+01  4.750000000E+00  0.00000E+00  9.000E+00
      21     1     1     2   511   501 -3.456351821E+00 -6.537191748E+00  9.419734624E-01  7.454432096E+00  1.393875996E-07  0.00000E+00  9.000E+00
#rwgt            1           9  0.11779985454269544               12     2017463           0
</event>
<event>
      6   9999  3.45752E-01  1.20509E+01 -1.00000E+00  1.79045E-01
      21    -1     0     0   501   512  0.000000000E+00  0.000000000E+00  4.374531800E+01  4.374531800E+01  0.000000000E+00  0.00000E+00  9.000E+00
      21    -1     0     0   502   503  0.000000000E+00  0.000000000E+00 -1.234330306E+03  1.234330306E+03  0.000000000E+00  0.00000E+00  9.000E+00
      25     1     1     2     0     0  1.286051829E+01  5.755379754E+00 -9.817546958E+02  9.897805488E+02  1.249989387E+02  0.00000E+00  9.000E+00
       5     1     1     2   501     0 -8.162388736E+00 -8.457806923E+00  3.118360518E+01  3.366212739E+01  4.750000000E+00  0.00000E+00  9.000E+00
      -5     1     1     2     0   503 -1.658839870E+01  4.663635793E+00 -2.417918111E+02  2.424515764E+02  4.750000000E+00  0.00000E+00  9.000E+00
      21     1     1     2   502   512  1.189026915E+01 -1.961208624E+00  1.777913510E+00  1.218137169E+01  4.344397705E-07  0.00000E+00  9.000E+00
#rwgt            1           9   5.0496399402891819E-004          12     2023297           0
</event>
<event>
      6   9999 -3.45752E-01  4.90409E+01 -1.00000E+00  1.35239E-01
      21    -1     0     0   511   503  0.000000000E+00  0.000000000E+00  1.988929765E+01  1.988929765E+01  0.000000000E+00  0.00000E+00  9.000E+00
      21    -1     0     0   501   502  0.000000000E+00  0.000000000E+00 -1.696076957E+03  1.696076957E+03  0.000000000E+00  0.00000E+00  9.000E+00
      25     1     1     2     0     0  1.472555193E+01  3.414204901E+00 -1.488468081E+03  1.493785911E+03  1.250224899E+02  0.00000E+00  9.000E+00
       5     1     1     2   501     0  1.762231821E+00  3.989614866E-02 -2.309398756E+01  2.364321920E+01  4.750000000E+00  0.00000E+00  9.000E+00
      -5     1     1     2     0   503  3.247434834E+01 -6.232539612E+00 -1.394810930E+02  1.434258194E+02  4.750000000E+00  0.00000E+00  9.000E+00
      21     1     1     2   511   502 -4.896213209E+01  2.778438563E+00 -2.514449761E+01  5.511130428E+01  3.090257978E-06  0.00000E+00  9.000E+00
#rwgt            1           9  -5.5898411640510517E-004          12     2027060           0
</event>
<event>
      6   9999  3.45752E-01  1.00648E+01 -1.00000E+00  1.86899E-01
      21    -1     0     0   512   502  0.000000000E+00  0.000000000E+00  2.489034313E+01  2.489034313E+01  0.000000000E+00  0.00000E+00  9.000E+00
      21    -1     0     0   502   503  0.000000000E+00  0.000000000E+00 -1.000509519E+03  1.000509519E+03  0.000000000E+00  0.00000E+00  9.000E+00
      25     1     1     2     0     0 -8.703171275E+00 -1.253677199E+01 -7.363801228E+02  7.470714770E+02  1.250087623E+02  0.00000E+00  9.000E+00
       5     1     1     2   501     0 -8.907935684E+00 -2.926085983E-01  1.305480676E+01  1.650537541E+01  4.750000000E+00  0.00000E+00  9.000E+00
      -5     1     1     2     0   503  7.589408959E+00  1.375951471E+01 -2.511584909E+02  2.516944048E+02  4.750000000E+00  0.00000E+00  9.000E+00
      21     1     1     2   512   501  1.002169800E+01 -9.301341184E-01 -1.135369280E+00  1.012860522E+01  3.692362217E-07  0.00000E+00  9.000E+00
#rwgt            1           9   1.0487167963071865E-004          12     2027435           0
</event>
<event>
      6   9999  3.45752E-01  1.88297E+01 -1.00000E+00  1.62235E-01
      21    -1     0     0   501   502  0.000000000E+00  0.000000000E+00  4.774940960E+01  4.774940960E+01  0.000000000E+00  0.00000E+00  9.000E+00
      21    -1     0     0   511   503  0.000000000E+00  0.000000000E+00 -1.366852567E+02  1.366852567E+02  0.000000000E+00  0.00000E+00  9.000E+00
      25     1     1     2     0     0  8.609540949E+00  8.014798070E+00 -7.558559630E+01  1.465451491E+02  1.249957486E+02  0.00000E+00  9.000E+00
       5     1     1     2   501     0  7.143658954E-01  3.299497874E-01  3.550468704E-01  4.827809418E+00  4.750000000E+00  0.00000E+00  9.000E+00
      -5     1     1     2     0   503  6.562009110E+00  1.764466528E+00  2.015403706E+00  8.532154346E+00  4.750000000E+00  0.00000E+00  9.000E+00
      21     1     1     2   511   502 -1.588591595E+01 -1.010921439E+01 -1.572070134E+01  2.452955344E+01  5.331201500E-07  0.00000E+00  9.000E+00
#rwgt            1           9   6.6836306592484920E-003          12     2030480           0
</event>
<event>
      6   9999  3.45752E-01  6.30721E+00 -1.00000E+00  2.11081E-01
      21    -1     0     0   501   502  0.000000000E+00  0.000000000E+00  6.120227190E+01  6.120227190E+01  0.000000000E+00  0.00000E+00  9.000E+00
      21    -1     0     0   502   512  0.000000000E+00  0.000000000E+00 -1.444363788E+03  1.444363788E+03  0.000000000E+00  0.00000E+00  9.000E+00
      25     1     1     2     0     0 -3.325791322E+01  5.166403548E+01 -5.255960223E+02  5.437393357E+02  1.250041004E+02  0.00000E+00  9.000E+00
       5     1     1     2   501     0  5.490820320E+01  7.571334931E+00  3.497690468E+01  6.571287737E+01  4.750000000E+00  0.00000E+00  9.000E+00
      -5     1     1     2     0   503 -2.304860803E+01 -6.538562441E+01 -8.678815574E+02  8.706592206E+02  4.750000000E+00  0.00000E+00  9.000E+00
      21     1     1     2   503   512  1.398318052E+00  6.150254003E+00 -2.466084134E+01  2.545462656E+01  4.768371582E-07  0.00000E+00  9.000E+00
#rwgt            1           9   1.8654954196696076               12     2032338           0
</event>
<event>
      6   9999  3.45752E-01  4.96394E+00 -1.00000E+00  2.29916E-01
      21    -1     0     0   501   502  0.000000000E+00  0.000000000E+00  2.224723852E+01  2.224723852E+01  0.000000000E+00  0.00000E+00  9.000E+00
      21    -1     0     0   502   511  0.000000000E+00  0.000000000E+00 -1.213785638E+03  1.213785638E+03  0.000000000E+00  0.00000E+00  9.000E+00
      25     1     1     2     0     0  8.177521580E+00 -6.198079128E+00 -9.721445620E+02  9.802015974E+02  1.249993363E+02  0.00000E+00  9.000E+00
       5     1     1     2   501     0 -3.849808157E+00  2.117402274E+00  1.748112165E+01  1.864018587E+01  4.750000000E+00  0.00000E+00  9.000E+00
      -5     1     1     2     0   503  4.043088540E-03  1.656516416E+00 -5.047830113E+01  5.072834954E+01  4.750000000E+00  0.00000E+00  9.000E+00
      21     1     1     2   503   511 -4.331756511E+00  2.424160438E+00 -1.863966577E+02  1.864627433E+02  3.814697266E-06  0.00000E+00  9.000E+00
#rwgt            1           9   7.7381724970621989E-004          12     2037925           0
</event>
<event>
      6   9999 -3.45752E-01  3.21213E+01 -1.00000E+00  1.45944E-01
      21    -1     0     0   501   502  0.000000000E+00  0.000000000E+00  1.767707053E+01  1.767707053E+01  0.000000000E+00  0.00000E+00  9.000E+00
      21    -1     0     0   502   512  0.000000000E+00  0.000000000E+00 -1.417015669E+03  1.417015669E+03  0.000000000E+00  0.00000E+00  9.000E+00
      25     1     1     2     0     0  2.267911759E+01 -9.042945785E+00 -9.591162309E+02  9.675357092E+02  1.250011482E+02  0.00000E+00  9.000E+00
       5     1     1     2   501     0  7.250066848E+00  9.955090857E-01  9.201033171E+00  1.267974838E+01  4.750000000E+00  0.00000E+00  9.000E+00
      -5     1     1     2     0   503  1.531282955E+00  1.565278486E+00 -1.552485145E+00  5.455972356E+00  4.750000000E+00  0.00000E+00  9.000E+00
      21     1     1     2   503   512 -3.146046740E+01  6.482158213E+00 -4.478709160E+02  4.490213099E+02  7.629394531E-06  0.00000E+00  9.000E+00
#rwgt            1           9  -1.0063412389577831E-004          12     2042728           0
</event>
<event>
      6   9999  3.45752E-01  2.54026E+01 -1.00000E+00  1.52668E-01
      21    -1     0     0   501   502  0.000000000E+00  0.000000000E+00  1.213143621E+02  1.213143621E+02  0.000000000E+00  0.00000E+00  9.000E+00
      21    -1     0     0   511   503  0.000000000E+00  0.000000000E+00 -1.477942992E+02  1.477942992E+02  0.000000000E+00  0.00000E+00  9.000E+00
      25     1     1     2     0     0  4.605304666E+00 -3.502108695E-01 -1.353065166E+01  1.258230628E+02  1.250081322E+02  0.00000E+00  9.000E+00
       5     1     1     2   501     0 -2.299808722E+01 -1.193957522E+01  5.649805365E+01  6.233825502E+01  4.750000000E+00  0.00000E+00  9.000E+00
      -5     1     1     2     0   503 -6.983230647E+00  1.345125264E+01 -3.157496885E+01  3.534462994E+01  4.750000000E+00  0.00000E+00  9.000E+00
      21     1     1     2   511   502  2.537601320E+01 -1.161466550E+00 -3.787237021E+01  4.560271347E+01  4.768371582E-07  0.00000E+00  9.000E+00
#rwgt            1           9   153335.83499300494               12     2043833           0
</event>
<event>
      6   9999  3.45752E-01  3.56330E+00 -1.00000E+00  2.58722E-01
      21    -1     0     0   512   502  0.000000000E+00  0.000000000E+00  1.387907822E+01  1.387907822E+01  0.000000000E+00  0.00000E+00  9.000E+00
      21    -1     0     0   502   503  0.000000000E+00  0.000000000E+00 -8.673701040E+02  8.673701040E+02  0.000000000E+00  0.00000E+00  9.000E+00
      25     1     1     2     0     0 -2.025520334E+00 -1.276871027E+00 -8.183388107E+02  8.278339767E+02  1.249998026E+02  0.00000E+00  9.000E+00
       5     1     1     2   501     0  6.040067997E-01  9.549408805E-01  7.487880379E+00  8.939104478E+00  4.750000000E+00  0.00000E+00  9.000E+00
      -5     1     1     2     0   503  2.902443010E+00  3.562915260E+00 -3.827429513E+01  3.884073517E+01  4.750000000E+00  0.00000E+00  9.000E+00
      21     1     1     2   512   501 -1.480929476E+00 -3.240985113E+00 -4.365800277E+00  5.635365886E+00  1.032382731E-07  0.00000E+00  9.000E+00
#rwgt            1           9   1.5904828326323848E-004          12     2045083           0
</event>
<event>
      6   9999  3.45752E-01  4.60320E+00 -1.00000E+00  2.35866E-01
      21    -1     0     0   501   502  0.000000000E+00  0.000000000E+00  2.696883888E+01  2.696883888E+01  0.000000000E+00  0.00000E+00  9.000E+00
      21    -1     0     0   502   511  0.000000000E+00  0.000000000E+00 -1.160053677E+03  1.160053677E+03  0.000000000E+00  0.00000E+00  9.000E+00
      25     1     1     2     0     0 -1.063098464E+01  4.935835918E+00 -1.036479940E+03  1.044055929E+03  1.249989484E+02  0.00000E+00  9.000E+00
       5     1     1     2   501     0  8.786898369E+00 -5.822206335E-02  2.168873146E+01  2.387836982E+01  4.750000000E+00  0.00000E+00  9.000E+00
      -5     1     1     2     0   503  5.670366121E+00 -2.318509822E+00 -4.603425559E+01  4.668237062E+01  4.750000000E+00  0.00000E+00  9.000E+00
      21     1     1     2   503   511 -3.826279854E+00 -2.559104032E+00 -7.225937327E+01  7.240584545E+01  0.000000000E+00  0.00000E+00  9.000E+00
#rwgt            1           9   1.2078766677568542E-003          12     2050975           0
</event>
<event>
      6   9999  3.45752E-01  5.56891E+00 -1.00000E+00  2.18670E-01
      21    -1     0     0   501   502  0.000000000E+00  0.000000000E+00  8.115408516E+00  8.115408516E+00  0.000000000E+00  0.00000E+00  9.000E+00
      21    -1     0     0   512   503  0.000000000E+00  0.000000000E+00 -1.071357391E+03  1.071357391E+03  0.000000000E+00  0.00000E+00  9.000E+00
      25     1     1     2     0     0  1.182113764E+01 -7.218560236E+00 -6.633637527E+02  6.751811097E+02  1.250048624E+02  0.00000E+00  9.000E+00
       5     1     1     2   501     0  4.859333607E-01 -1.322442968E+00 -1.858779721E+00  5.291743445E+00  4.750000000E+00  0.00000E+00  9.000E+00
      -5     1     1     2     0   503 -8.420482362E+00  4.552618505E+00 -6.062877704E+01  6.156331670E+01  4.750000000E+00  0.00000E+00  9.000E+00
      21     1     1     2   512   502 -3.886588642E+00  3.988384698E+00 -3.373906727E+02  3.374366293E+02  5.394796609E-06  0.00000E+00  9.000E+00
#rwgt            1           9   4.7870716632343184E-004          12     2056491           0
</event>
<event>
      6   9999  3.45752E-01  6.16445E+00 -1.00000E+00  2.12435E-01
      21    -1     0     0   501   502  0.000000000E+00  0.000000000E+00  1.066438916E+02  1.066438916E+02  0.000000000E+00  0.00000E+00  9.000E+00
      21    -1     0     0   511   503  0.000000000E+00  0.000000000E+00 -1.135068692E+02  1.135068692E+02  0.000000000E+00  0.00000E+00  9.000E+00
      25     1     1     2     0     0 -1.100830006E+01  1.240924027E+01  2.025421598E+01  1.277159222E+02  1.250038063E+02  0.00000E+00  9.000E+00
       5     1     1     2   501     0 -1.866161157E+00 -8.775296726E-01  3.021057408E+01  3.065116478E+01  4.750000000E+00  0.00000E+00  9.000E+00
      -5     1     1     2     0   503  6.719242558E+00 -1.119453200E+01 -2.272100658E+01  2.663216866E+01  4.750000000E+00  0.00000E+00  9.000E+00
      21     1     1     2   511   502  6.155218662E+00 -3.371785981E-01 -3.460676109E+01  3.515150522E+01  4.768371582E-07  0.00000E+00  9.000E+00
#rwgt            1           9   1.8041301701616219E-002          12     2060007           0
</event>
<event>
      6   9999  3.45752E-01  1.26952E+01 -1.00000E+00  1.76899E-01
      21    -1     0     0   501   502  0.000000000E+00  0.000000000E+00  4.144036105E+01  4.144036105E+01  0.000000000E+00  0.00000E+00  9.000E+00
      21    -1     0     0   512   503  0.000000000E+00  0.000000000E+00 -1.310379995E+03  1.310379995E+03  0.000000000E+00  0.00000E+00  9.000E+00
      25     1     1     2     0     0  4.546413968E+00 -8.947371310E+00 -9.382287096E+02  9.465713448E+02  1.249938960E+02  0.00000E+00  9.000E+00
       5     1     1     2   501     0  1.363348254E+00 -2.892522071E+00  3.599715512E+01  3.644973359E+01  4.750000000E+00  0.00000E+00  9.000E+00
      -5     1     1     2     0   503  1.410709509E+00  2.221186647E+01 -3.020847257E+02  3.029407551E+02  4.750000000E+00  0.00000E+00  9.000E+00
      21     1     1     2   512   502 -7.320471732E+00 -1.037197309E+01 -6.462335338E+01  6.585852211E+01  9.536743164E-07  0.00000E+00  9.000E+00
#rwgt            1           9   5.7313221264110870E-003          12     2063480           0
</event>
<event>
      6   9999  3.45752E-01  1.22010E+01 -1.00000E+00  1.78530E-01
      21    -1     0     0   501   502  0.000000000E+00  0.000000000E+00  8.338304223E+01  8.338304223E+01  0.000000000E+00  0.00000E+00  9.000E+00
      21    -1     0     0   511   503  0.000000000E+00  0.000000000E+00 -1.797346577E+03  1.797346577E+03  0.000000000E+00  0.00000E+00  9.000E+00
      25     1     1     2     0     0 -1.905576017E+02  2.205068737E+02 -9.374909367E+02  9.896936488E+02  1.251750024E+02  0.00000E+00  9.000E+00
       5     1     1     2   501     0  9.536086885E-01  1.331857226E+00  2.325412468E+01  2.379075509E+01  4.750000000E+00  0.00000E+00  9.000E+00
      -5     1     1     2     0   503  1.775521628E+02 -2.237406016E+02 -5.736971534E+02  6.408865840E+02  4.750000000E+00  0.00000E+00  9.000E+00
      21     1     1     2   511   502  1.205183016E+01  1.901870629E+00 -2.260295699E+02  2.263586318E+02  2.697398305E-06  0.00000E+00  9.000E+00
#rwgt            1           9   3.4932231832547907E-006          12     2066546           0
</event>
<event>
      6   9999 -3.45752E-01  5.06803E+00 -1.00000E+00  2.24807E-01
      21    -1     0     0   512   502  0.000000000E+00  0.000000000E+00  2.173842254E+02  2.173842254E+02  0.000000000E+00  0.00000E+00  9.000E+00
      21    -1     0     0   502   503  0.000000000E+00  0.000000000E+00 -8.706703650E+02  8.706703650E+02  0.000000000E+00  0.00000E+00  9.000E+00
      25     1     1     2     0     0 -1.609217016E+00  2.025634269E-01 -8.433059460E+02  8.525222416E+02  1.250064935E+02  0.00000E+00  9.000E+00
       5     1     1     2   501     0 -1.513286773E+00  1.282959712E+00  7.263896243E+00  8.902960805E+00  4.750000000E+00  0.00000E+00  9.000E+00
      -5     1     1     2     0   503 -1.206514029E+00  1.149726437E+00 -2.161612478E+01  2.219452404E+01  4.750000000E+00  0.00000E+00  9.000E+00
      21     1     1     2   512   501  4.329017818E+00 -2.635249575E+00  2.043720349E+02  2.044348639E+02  4.672030912E-06  0.00000E+00  9.000E+00
#rwgt            1           9  -6.7003914915892242E-005          12     2070437           0
</event>
<event>
      6   9999 -3.45752E-01  9.17588E+00 -1.00000E+00  1.91216E-01
      21    -1     0     0   501   502  0.000000000E+00  0.000000000E+00  8.499633393E+00  8.499633393E+00  0.000000000E+00  0.00000E+00  9.000E+00
      21    -1     0     0   502   511  0.000000000E+00  0.000000000E+00 -9.950421929E+02  9.950421929E+02  0.000000000E+00  0.00000E+00  9.000E+00
      25     1     1     2     0     0  9.294301951E-01 -4.951903169E+00 -5.452923856E+02  5.594594282E+02  1.250027234E+02  0.00000E+00  9.000E+00
       5     1     1     2   501     0  4.893976608E-03  4.755398075E-01 -3.976372304E+00  6.212905822E+00  4.750000000E+00  0.00000E+00  9.000E+00
      -5     1     1     2     0   503  6.544407242E+00  9.792885914E+00 -1.890222039E+02  1.894483728E+02  4.750000000E+00  0.00000E+00  9.000E+00
      21     1     1     2   503   511 -7.478731414E+00 -5.316522552E+00 -2.482515978E+02  2.484211195E+02  2.697398305E-06  0.00000E+00  9.000E+00
#rwgt            1           9  -3.0930421308504331E-004          12     2075100           0
</event>
<event>
      6   9999 -3.45752E-01  3.69673E+00 -1.00000E+00  2.55157E-01
      21    -1     0     0   512   502  0.000000000E+00  0.000000000E+00  2.166095721E+01  2.166095721E+01  0.000000000E+00  0.00000E+00  9.000E+00
      21    -1     0     0   502   503  0.000000000E+00  0.000000000E+00 -7.865682302E+02  7.865682302E+02  0.000000000E+00  0.00000E+00  9.000E+00
      25     1     1     2     0     0  8.187266004E+00  2.668554112E+01 -6.662429695E+02  6.784396515E+02  1.249860670E+02  0.00000E+00  9.000E+00
       5     1     1     2   501     0  5.355729609E-02 -5.406965464E-01 -1.685676830E+00  5.069440552E+00  4.750000000E+00  0.00000E+00  9.000E+00
      -5     1     1     2     0   503 -1.141682841E+01 -2.803662356E+01 -1.084353208E+02  1.126817534E+02  4.750000000E+00  0.00000E+00  9.000E+00
      21     1     1     2   512   501  3.176005105E+00  1.891778994E+00  1.145669417E+01  1.203834198E+01  3.769728732E-07  0.00000E+00  9.000E+00
#rwgt            1           9  -7.8704193396992117E-005          12     2077441           0
</event>
<event>
      6   9999  3.45752E-01  5.46874E+00 -1.00000E+00  2.19824E-01
      21    -1     0     0   511   502  0.000000000E+00  0.000000000E+00  8.785310897E+01  8.785310897E+01  0.000000000E+00  0.00000E+00  9.000E+00
      21    -1     0     0   502   503  0.000000000E+00  0.000000000E+00 -1.100974868E+02  1.100974868E+02  0.000000000E+00  0.00000E+00  9.000E+00
      25     1     1     2     0     0 -4.898243652E+01 -1.447624143E+01 -1.313307735E+01  1.356708489E+02  1.250010435E+02  0.00000E+00  9.000E+00
       5     1     1     2   501     0  4.020597570E+01 -1.807518353E+00 -1.264400467E+00  4.054563864E+01  4.750000000E+00  0.00000E+00  9.000E+00
      -5     1     1     2     0   503  7.580528727E+00  1.094739135E+01 -8.036372409E+00  1.626209011E+01  4.750000000E+00  0.00000E+00  9.000E+00
      21     1     1     2   511   501  1.195932099E+00  5.336368436E+00  1.894724336E-01  5.472018044E+00  1.274789768E-07  0.00000E+00  9.000E+00
#rwgt            1           9   3957.9148277372888               12     2081792           0
</event>
<event>
      6   9999  3.45752E-01  2.00247E+01 -1.00000E+00  1.60169E-01
      21    -1     0     0   512   502  0.000000000E+00  0.000000000E+00  1.479880938E+01  1.479880938E+01  0.000000000E+00  0.00000E+00  9.000E+00
      21    -1     0     0   502   503  0.000000000E+00  0.000000000E+00 -6.268065055E+02  6.268065055E+02  0.000000000E+00  0.00000E+00  9.000E+00
      25     1     1     2     0     0  7.840256008E+00 -1.155786989E+01 -5.574913193E+02  5.715029466E+02  1.249959717E+02  0.00000E+00  9.000E+00
       5     1     1     2   501     0  1.260373399E+00 -2.486224102E+00  1.535601749E+00  5.717554033E+00  4.750000000E+00  0.00000E+00  9.000E+00
      -5     1     1     2     0   503  4.561793517E-01 -3.553003299E+00 -1.305311026E+00  6.090834829E+00  4.750000000E+00  0.00000E+00  9.000E+00
      21     1     1     2   512   501 -9.556808759E+00  1.759709729E+01 -5.474666760E+01  5.829397945E+01  1.168007728E-06  0.00000E+00  9.000E+00
#rwgt            1           9   9.9960549372553220E-002          12     2085980           0
</event>
<event>
      6   9999  3.45752E-01  3.40766E+01 -1.00000E+00  1.44345E-01
      21    -1     0     0   502   503  0.000000000E+00  0.000000000E+00  9.883722320E+00  9.883722320E+00  0.000000000E+00  0.00000E+00  9.000E+00
      21    -1     0     0   511   502  0.000000000E+00  0.000000000E+00 -9.541197386E+02  9.541197386E+02  0.000000000E+00  0.00000E+00  9.000E+00
      25     1     1     2     0     0 -1.233743844E+01 -5.820128674E+00 -5.682956394E+02  5.820408091E+02  1.250019339E+02  0.00000E+00  9.000E+00
       5     1     1     2   501     0 -1.517994577E+01  2.272250603E+01 -1.479489672E+02  1.505264177E+02  4.750000000E+00  0.00000E+00  9.000E+00
      -5     1     1     2     0   503 -3.991958617E-02  3.142854863E+00 -3.086254496E+01  3.138372686E+01  4.750000000E+00  0.00000E+00  9.000E+00
      21     1     1     2   511   501  2.755730380E+01 -2.004523222E+01 -1.971288647E+02  2.000525072E+02  2.697398305E-06  0.00000E+00  9.000E+00
#rwgt            1           9   3.7632863629554591E-005          12     2087487           0
</event>
<event>
      6   9999  3.45752E-01  1.91139E+01 -1.00000E+00  1.61727E-01
      21    -1     0     0   501   502  0.000000000E+00  0.000000000E+00  1.392327662E+01  1.392327662E+01  0.000000000E+00  0.00000E+00  9.000E+00
      21    -1     0     0   512   503  0.000000000E+00  0.000000000E+00 -1.018212315E+03  1.018212315E+03  0.000000000E+00  0.00000E+00  9.000E+00
      25     1     1     2     0     0 -1.016132808E+01  3.924281931E+00 -7.412645067E+02  7.518074236E+02  1.249907225E+02  0.00000E+00  9.000E+00
       5     1     1     2   501     0 -8.379893206E+00 -2.435560415E+00  5.017350761E+00  1.113062772E+01  4.750000000E+00  0.00000E+00  9.000E+00
      -5     1     1     2     0   503 -4.868965822E-01 -3.297760067E+00 -6.192215299E+01  6.219347089E+01  4.750000000E+00  0.00000E+00  9.000E+00
      21     1     1     2   512   502  1.902811786E+01  1.809038551E+00 -2.061197297E+02  2.070040696E+02  2.697398305E-06  0.00000E+00  9.000E+00
#rwgt            1           9   2.2755702713078731E-003          12     2088017           0
</event>
<event>
      6   9999  3.45752E-01  8.00797E+00 -1.00000E+00  1.97964E-01
      21    -1     0     0   501   502  0.000000000E+00  0.000000000E+00  5.131217654E+00  5.131217654E+00  0.000000000E+00  0.00000E+00  9.000E+00
      21    -1     0     0   511   503  0.000000000E+00  0.000000000E+00 -1.467061896E+03  1.467061896E+03  0.000000000E+00  0.00000E+00  9.000E+00
      25     1     1     2     0     0  1.082869097E+00 -4.109477389E+00 -1.272398470E+03  1.278528924E+03  1.249811301E+02  0.00000E+00  9.000E+00
       5     1     1     2   501     0 -1.542144163E+00  6.649178916E-01 -2.180057186E+00  5.489578650E+00  4.750000000E+00  0.00000E+00  9.000E+00
      -5     1     1     2     0   503 -6.611429511E+00 -3.147823486E-01 -5.731513322E+01  5.789125223E+01  4.750000000E+00  0.00000E+00  9.000E+00
      21     1     1     2   511   502  7.070704576E+00  3.759341846E+00 -1.300370184E+02  1.302833591E+02  1.907348633E-06  0.00000E+00  9.000E+00
#rwgt            1           9   1.3083348734964542E-003          12     2089618           0
</event>
<event>
      6   9999  3.45752E-01  1.42772E+01 -1.00000E+00  1.72251E-01
      21    -1     0     0   501   512  0.000000000E+00  0.000000000E+00  2.195313701E+01  2.195313701E+01  0.000000000E+00  0.00000E+00  9.000E+00
      21    -1     0     0   502   503  0.000000000E+00  0.000000000E+00 -9.036947237E+02  9.036947237E+02  0.000000000E+00  0.00000E+00  9.000E+00
      25     1     1     2     0     0  5.081517847E+00 -1.983973926E+01 -4.465088112E+02  4.641263605E+02  1.249948916E+02  0.00000E+00  9.000E+00
       5     1     1     2   501     0 -3.789785354E+01 -3.229764794E+01 -2.027380049E+02  2.088172562E+02  4.750000000E+00  0.00000E+00  9.000E+00
      -5     1     1     2     0   503  1.879978455E+01  4.942188501E+01 -2.324411824E+02  2.384269708E+02  4.750000000E+00  0.00000E+00  9.000E+00
      21     1     1     2   502   512  1.401655114E+01  2.715502187E+00 -5.358814262E-02  1.427727319E+01  6.763370724E-07  0.00000E+00  9.000E+00
#rwgt            1           9  0.13483201870012987               12     2092748           0
</event>
<event>
      6   9999 -3.45752E-01  4.23996E+00 -1.00000E+00  2.42727E-01
      21    -1     0     0   501   502  0.000000000E+00  0.000000000E+00  7.844420427E+01  7.844420427E+01  0.000000000E+00  0.00000E+00  9.000E+00
      -1    -1     0     0     0   503  0.000000000E+00  0.000000000E+00 -1.086503803E+02  1.086503803E+02  0.000000000E+00  0.00000E+00  9.000E+00
      25     1     1     2     0     0 -7.758500342E-01  2.663017104E+00 -3.680781858E+01  1.303418477E+02  1.250059524E+02  0.00000E+00  9.000E+00
       5     1     1     2   501     0 -1.709428850E+00  1.196245745E+00  2.987486024E+01  3.032198749E+01  4.750000000E+00  0.00000E+00  9.000E+00
      -5     1     1     2     0   503  1.902298702E+00  3.404304319E-01 -3.501401594E+00  6.209423995E+00  4.750000000E+00  0.00000E+00  9.000E+00
      -1     1     1     2     0   502  5.829801820E-01 -4.199693281E+00 -1.977181611E+01  2.022132543E+01  2.384185791E-07  0.00000E+00  9.000E+00
#rwgt            1           9  -4.0195664577981565E-005          12     2094722           0
</event>
<event>
      6   9999  3.45752E-01  2.04623E+01 -1.00000E+00  1.59456E-01
      21    -1     0     0   501   502  0.000000000E+00  0.000000000E+00  1.078278732E+01  1.078278732E+01  0.000000000E+00  0.00000E+00  9.000E+00
       2    -1     0     0   502     0  0.000000000E+00  0.000000000E+00 -1.623415620E+03  1.623415620E+03  0.000000000E+00  0.00000E+00  9.000E+00
      25     1     1     2     0     0  1.330166156E+01 -1.871949450E+01 -6.993114341E+02  7.107622823E+02  1.249767433E+02  0.00000E+00  9.000E+00
       5     1     1     2   501     0 -3.535666417E+00  4.695744717E-01  1.952983914E+00  6.252846021E+00  4.750000000E+00  0.00000E+00  9.000E+00
      -5     1     1     2     0   503 -2.987209452E+01  1.444830613E+01 -3.671454570E+02  3.686725440E+02  4.750000000E+00  0.00000E+00  9.000E+00
       2     1     1     2   503     0  2.010609938E+01  3.801613900E+00 -5.481289255E+02  5.485107351E+02  7.629394531E-06  0.00000E+00  9.000E+00
#rwgt            1           9   1.8299215411761048E-003          12     2099769           0
</event>
<event>
      6   9999  3.45752E-01  1.26395E+01 -1.00000E+00  1.77078E-01
      21    -1     0     0   511   502  0.000000000E+00  0.000000000E+00  1.047883885E+01  1.047883885E+01  0.000000000E+00  0.00000E+00  9.000E+00
      21    -1     0     0   502   503  0.000000000E+00  0.000000000E+00 -7.727293930E+02  7.727293930E+02  0.000000000E+00  0.00000E+00  9.000E+00
      25     1     1     2     0     0 -1.660983711E+01 -2.135237582E-01 -7.099447604E+02  7.210559174E+02  1.249965633E+02  0.00000E+00  9.000E+00
       5     1     1     2   501     0 -6.384992820E-01 -7.325899190E-01 -1.627824914E-02  4.848415649E+00  4.750000000E+00  0.00000E+00  9.000E+00
      -5     1     1     2     0   503  6.370601582E+00 -5.490709759E+00 -3.175187100E+01  3.318849605E+01  4.750000000E+00  0.00000E+00  9.000E+00
      21     1     1     2   511   501  1.087773481E+01  6.436823436E+00 -2.053764448E+01  2.411540278E+01  3.371747881E-07  0.00000E+00  9.000E+00
#rwgt            1           9  0.10284169118678591               12     2101068           0
</event>
<event>
      6   9999  3.45752E-01  2.13344E+01 -1.00000E+00  1.58098E-01
       2    -1     0     0   502     0  0.000000000E+00  0.000000000E+00  2.397931476E+03  2.397931476E+03  0.000000000E+00  0.00000E+00  9.000E+00
      21    -1     0     0   501   502  0.000000000E+00  0.000000000E+00 -9.335368247E+02  9.335368247E+02  0.000000000E+00  0.00000E+00  9.000E+00
      25     1     1     2     0     0 -5.781781132E+01  2.825944507E+01 -2.322841200E+02  2.715167495E+02  1.249957491E+02  0.00000E+00  9.000E+00
       5     1     1     2   501     0  4.878624619E-01  3.088906671E+00 -1.673462913E+02  1.674428950E+02  4.750000000E+00  0.00000E+00  9.000E+00
      -5     1     1     2     0   503  5.489744994E+01 -1.015307125E+01 -5.126675619E+02  5.157202793E+02  4.750000000E+00  0.00000E+00  9.000E+00
       2     1     1     2   503     0  2.432498920E+00 -2.119528049E+01  2.376692625E+03  2.376788377E+03  3.051757812E-05  0.00000E+00  9.000E+00
#rwgt            1           9   1.7539242856831112E-004          12     2102808           0
</event>
<event>
      6   9999  3.45752E-01  2.19324E+01 -1.00000E+00  1.57212E-01
      21    -1     0     0   511   502  0.000000000E+00  0.000000000E+00  1.085835322E+02  1.085835322E+02  0.000000000E+00  0.00000E+00  9.000E+00
      21    -1     0     0   502   503  0.000000000E+00  0.000000000E+00 -1.106033497E+03  1.106033497E+03  0.000000000E+00  0.00000E+00  9.000E+00
      25     1     1     2     0     0 -4.278108514E+01 -3.216353172E+01 -8.757344140E+02  8.862280145E+02  1.249984631E+02  0.00000E+00  9.000E+00
       5     1     1     2   501     0 -1.145455393E+01  2.898250421E+00  1.499041267E+01  1.966930688E+01  4.750000000E+00  0.00000E+00  9.000E+00
      -5     1     1     2     0   503  3.663264567E+01  4.234822506E+01 -2.176859224E+02  2.248222547E+02  4.750000000E+00  0.00000E+00  9.000E+00
      21     1     1     2   511   501  1.760299341E+01 -1.308294376E+01  8.097995925E+01  8.389745285E+01  2.697398305E-06  0.00000E+00  9.000E+00
#rwgt            1           9   1.8839139549232654E-004          12     2104527           0
</event>
<event>
      6   9999  3.45752E-01  7.62007E+00 -1.00000E+00  2.00550E-01
      21    -1     0     0   512   502  0.000000000E+00  0.000000000E+00  1.237058916E+01  1.237058916E+01  0.000000000E+00  0.00000E+00  9.000E+00
      21    -1     0     0   502   503  0.000000000E+00  0.000000000E+00 -8.301214964E+02  8.301214964E+02  0.000000000E+00  0.00000E+00  9.000E+00
      25     1     1     2     0     0  4.389284066E-01  1.872594003E+01 -7.778975031E+02  7.880983435E+02  1.249944808E+02  0.00000E+00  9.000E+00
       5     1     1     2   501     0  2.892285330E+00  1.969004885E-01  2.796514335E+00  6.227927156E+00  4.750000000E+00  0.00000E+00  9.000E+00
      -5     1     1     2     0   503  2.041165990E+00 -1.351886641E+01 -3.143515381E+01  3.460718860E+01  4.750000000E+00  0.00000E+00  9.000E+00
      21     1     1     2   512   501 -5.372379727E+00 -5.403974114E+00 -1.121476460E+01  1.355862623E+01  4.616955931E-07  0.00000E+00  9.000E+00
#rwgt            1           9   4.8732355260455657E-005          12     2106978           0
</event>
<event>
      6   9999  3.45752E-01  1.00583E+01 -1.00000E+00  1.86928E-01
      21    -1     0     0   501   511  0.000000000E+00  0.000000000E+00  2.680439523E+01  2.680439523E+01  0.000000000E+00  0.00000E+00  9.000E+00
      21    -1     0     0   502   503  0.000000000E+00  0.000000000E+00 -9.604239389E+02  9.604239389E+02  0.000000000E+00  0.00000E+00  9.000E+00
      25     1     1     2     0     0 -6.863643863E+00  1.655249014E+00 -4.709351685E+02  4.872936044E+02  1.250010979E+02  0.00000E+00  9.000E+00
       5     1     1     2   501     0  3.604869419E+00  1.096845763E+00  1.397306831E+01  1.523178559E+01  4.750000000E+00  0.00000E+00  9.000E+00
      -5     1     1     2     0   503  7.733904099E-01  6.994336309E+00 -4.742948904E+02  4.743708722E+02  4.750000000E+00  0.00000E+00  9.000E+00
      21     1     1     2   502   511  2.485384034E+00 -9.746431086E+00 -2.362553044E+00  1.033207189E+01  2.190014490E-07  0.00000E+00  9.000E+00
#rwgt            1           9   3.5363878879634604E-005          12     2109956           0
</event>
<event>
      6   9999  3.45752E-01  2.00315E+00 -1.00000E+00  3.32622E-01
      21    -1     0     0   501   512  0.000000000E+00  0.000000000E+00  3.618122675E+02  3.618122675E+02  0.000000000E+00  0.00000E+00  9.000E+00
      21    -1     0     0   502   503  0.000000000E+00  0.000000000E+00 -4.445538696E+01  4.445538696E+01  0.000000000E+00  0.00000E+00  9.000E+00
      25     1     1     2     0     0 -3.338055432E+01 -4.432022957E+01  8.207424590E+01  1.595030567E+02  1.250059963E+02  0.00000E+00  9.000E+00
       5     1     1     2   501     0 -1.279000789E+00 -1.512969376E+00  9.434398670E+01  9.448425925E+01  4.750000000E+00  0.00000E+00  9.000E+00
      -5     1     1     2     0   503  3.350705973E+01  4.419479973E+01  1.362044846E+02  1.471398229E+02  4.750000000E+00  0.00000E+00  9.000E+00
      21     1     1     2   502   512  1.152495378E+00  1.638399209E+00  4.734163345E+00  5.140515552E+00  8.429369702E-08  0.00000E+00  9.000E+00
#rwgt            1           9   4.7436216609633545E-004          12     2113206           0
</event>
<event>
      6   9999  3.45752E-01  1.10446E+01 -1.00000E+00  1.82760E-01
      21    -1     0     0   511   502  0.000000000E+00  0.000000000E+00  1.927748745E+02  1.927748745E+02  0.000000000E+00  0.00000E+00  9.000E+00
      21    -1     0     0   502   503  0.000000000E+00  0.000000000E+00 -8.974757764E+02  8.974757764E+02  0.000000000E+00  0.00000E+00  9.000E+00
      25     1     1     2     0     0 -2.367233368E+02  8.845995224E+01 -3.611851799E+02  4.581960202E+02  1.250030295E+02  0.00000E+00  9.000E+00
       5     1     1     2   501     0 -3.731982384E+00 -8.992281964E+00  8.882429719E+01  8.948244017E+01  4.750000000E+00  0.00000E+00  9.000E+00
      -5     1     1     2     0   503  2.295870170E+02 -8.143340800E+01 -4.556925021E+02  5.167396030E+02  4.750000000E+00  0.00000E+00  9.000E+00
      21     1     1     2   511   501  1.086830219E+01  1.965737728E+00  2.335248290E+01  2.583258746E+01  6.743495762E-07  0.00000E+00  9.000E+00
#rwgt            1           9   1.0612226977453554E-004          12     2122161           0
</event>
<event>
      6   9999  3.45752E-01  1.17759E+01 -1.00000E+00  1.80013E-01
      21    -1     0     0   512   502  0.000000000E+00  0.000000000E+00  5.981578031E+02  5.981578031E+02  0.000000000E+00  0.00000E+00  9.000E+00
      21    -1     0     0   502   503  0.000000000E+00  0.000000000E+00 -3.568538362E+03  3.568538362E+03  0.000000000E+00  0.00000E+00  9.000E+00
      25     1     1     2     0     0 -9.998488004E+00  4.220642384E+00 -3.223277556E+03  3.225718564E+03  1.249970804E+02  0.00000E+00  9.000E+00
       5     1     1     2   501     0  1.562805777E+01  5.403417484E+00 -2.074032388E+02  2.081155906E+02  4.750000000E+00  0.00000E+00  9.000E+00
      -5     1     1     2     0   503  4.986507187E-01  4.315646453E-01 -1.361805671E+02  1.362649781E+02  4.750000000E+00  0.00000E+00  9.000E+00
      21     1     1     2   512   501 -6.128220488E+00 -1.005562451E+01  5.964808028E+02  5.965970321E+02  1.705984480E-05  0.00000E+00  9.000E+00
#rwgt            1           9   1.4058187260993213               12     2126384           0
</event>
<event>
      6   9999  3.45752E-01  6.76533E+00 -1.00000E+00  2.07044E-01
      21    -1     0     0   501   511  0.000000000E+00  0.000000000E+00  1.148433632E+01  1.148433632E+01  0.000000000E+00  0.00000E+00  9.000E+00
      21    -1     0     0   502   503  0.000000000E+00  0.000000000E+00 -8.373092704E+02  8.373092704E+02  0.000000000E+00  0.00000E+00  9.000E+00
      25     1     1     2     0     0 -2.378572333E+01  1.464221656E+01 -6.439080334E+02  6.565234559E+02  1.250013501E+02  0.00000E+00  9.000E+00
       5     1     1     2   501     0  3.323112047E-01  9.330676198E-01  2.367545908E+00  5.398964673E+00  4.750000000E+00  0.00000E+00  9.000E+00
      -5     1     1     2     0   503  1.671988770E+01 -1.492006282E+01 -1.610801724E+02  1.627007909E+02  4.750000000E+00  0.00000E+00  9.000E+00
      21     1     1     2   502   511  6.733524421E+00 -6.552213551E-01 -2.320427412E+01  2.417039519E+01  3.371747881E-07  0.00000E+00  9.000E+00
#rwgt            1           9   1.8926689678871563E-005          12     2128086           0
</event>
<event>
      6   9999  3.45752E-01  1.74752E+01 -1.00000E+00  1.64817E-01
      21    -1     0     0   501   512  0.000000000E+00  0.000000000E+00  5.283574559E+01  5.283574559E+01  0.000000000E+00  0.00000E+00  9.000E+00
      21    -1     0     0   502   503  0.000000000E+00  0.000000000E+00 -1.224668999E+03  1.224668999E+03  0.000000000E+00  0.00000E+00  9.000E+00
      25     1     1     2     0     0  1.638077007E+01 -8.701646714E+01 -1.007204154E+03  1.018786462E+03  1.250018038E+02  0.00000E+00  9.000E+00
       5     1     1     2   501     0  5.286536907E+00 -3.547845194E+00  2.914572102E+01  3.020877740E+01  4.750000000E+00  0.00000E+00  9.000E+00
      -5     1     1     2     0   503 -4.564403394E+00  9.415226847E+01 -1.875483840E+02  2.099581917E+02  4.750000000E+00  0.00000E+00  9.000E+00
      21     1     1     2   502   512 -1.710290358E+01 -3.587956138E+00 -6.226436338E+00  1.855131396E+01  4.616955931E-07  0.00000E+00  9.000E+00
#rwgt            1           9   5.1543360934553544E-004          12     2132036           0
</event>
<event>
      6   9999 -3.45752E-01  1.65533E+01 -1.00000E+00  1.66744E-01
      21    -1     0     0   502   511  0.000000000E+00  0.000000000E+00  5.838744949E+01  5.838744949E+01  0.000000000E+00  0.00000E+00  9.000E+00
      21    -1     0     0   501   502  0.000000000E+00  0.000000000E+00 -1.375606310E+03  1.375606310E+03  0.000000000E+00  0.00000E+00  9.000E+00
      25     1     1     2     0     0  1.087400217E+02  1.184403067E+02 -2.392085032E+02  3.141678736E+02  1.250129843E+02  0.00000E+00  9.000E+00
       5     1     1     2   501     0 -1.058934880E+02 -1.490205845E+02 -9.830190747E+02  9.998848079E+02  4.750000000E+00  0.00000E+00  9.000E+00
      -5     1     1     2     0   503  6.824077452E+00  4.401494992E+01 -9.305520213E+01  1.032749582E+02  4.750000000E+00  0.00000E+00  9.000E+00
      21     1     1     2   503   511 -9.670611185E+00 -1.343467214E+01 -1.936080337E+00  1.666611962E+01  5.044433737E-07  0.00000E+00  9.000E+00
#rwgt            1           9  -1.1595226089484247E-002          12     2134828           0
</event>
<event>
      6   9999  3.45752E-01  6.16222E+00 -1.00000E+00  2.12457E-01
      21    -1     0     0   501   502  0.000000000E+00  0.000000000E+00  4.266799832E+03  4.266799832E+03  0.000000000E+00  0.00000E+00  9.000E+00
      21    -1     0     0   512   503  0.000000000E+00  0.000000000E+00 -1.751883115E+00  1.751883115E+00  0.000000000E+00  0.00000E+00  9.000E+00
      25     1     1     2     0     0 -1.591463225E+01 -1.150660735E+01  2.902786315E+03  2.905542862E+03  1.250010092E+02  0.00000E+00  9.000E+00
       5     1     1     2   501     0  2.182355392E-01 -9.720109443E-01  9.728188529E+02  9.728309593E+02  4.750000000E+00  0.00000E+00  9.000E+00
      -5     1     1     2     0   503  1.591786191E+01  6.320382546E+00  2.859329074E+02  2.864847563E+02  4.750000000E+00  0.00000E+00  9.000E+00
      21     1     1     2   512   502 -2.214651987E-01  6.158235749E+00  1.035098727E+02  1.036931370E+02  1.348699152E-06  0.00000E+00  9.000E+00
#rwgt            1           9   2.8154909808584708E-003          12     2137737           0
</event>
<event>
      6   9999  3.45752E-01  7.86371E+00 -1.00000E+00  1.98903E-01
      21    -1     0     0   502   511  0.000000000E+00  0.000000000E+00  1.209498491E+01  1.209498491E+01  0.000000000E+00  0.00000E+00  9.000E+00
      21    -1     0     0   501   502  0.000000000E+00  0.000000000E+00 -7.909862206E+02  7.909862206E+02  0.000000000E+00  0.00000E+00  9.000E+00
      25     1     1     2     0     0 -4.515187769E+00  1.079105641E+01 -3.516711841E+02  3.734100421E+02  1.250024160E+02  0.00000E+00  9.000E+00
       5     1     1     2   501     0  1.101970676E+01 -1.130626555E+01 -3.883286674E+02  3.886785073E+02  4.750000000E+00  0.00000E+00  9.000E+00
      -5     1     1     2     0   503  1.334918554E+00 -1.022196343E-01 -1.820438857E+01  1.886146123E+01  4.750000000E+00  0.00000E+00  9.000E+00
      21     1     1     2   503   511 -7.839437541E+00  6.174287784E-01 -2.068699555E+01  2.213119482E+01  3.371747881E-07  0.00000E+00  9.000E+00
#rwgt            1           9   7.8195266016156705E-004          12     2140985           0
</event>
<event>
      6   9999 -3.45752E-01  3.94448E+01 -1.00000E+00  1.40539E-01
       2    -1     0     0   501     0  0.000000000E+00  0.000000000E+00  5.291748192E+02  5.291748192E+02  0.000000000E+00  0.00000E+00  9.000E+00
      21    -1     0     0   512   502  0.000000000E+00  0.000000000E+00 -2.729802760E+02  2.729802760E+02  0.000000000E+00  0.00000E+00  9.000E+00
      25     1     1     2     0     0 -7.236953147E+01 -1.443376137E+01  4.869246242E+01  1.531068294E+02  1.250002510E+02  0.00000E+00  9.000E+00
       5     1     1     2   501     0  3.110493547E+02 -1.091451445E+02  1.854349988E+02  3.782500032E+02  4.750000000E+00  0.00000E+00  9.000E+00
      -5     1     1     2     0   502 -2.034079325E+02  1.059214526E+02  2.732287464E+01  2.310048552E+02  4.750000000E+00  0.00000E+00  9.000E+00
       2     1     1     2   512     0 -3.527189071E+01  1.765745326E+01 -5.255792601E+00  3.979340757E+01  4.951133646E-07  0.00000E+00  9.000E+00
#rwgt            1           4  -4.4449305131814891E-004          12     2143541           0
</event>
<event>
      6   9999  3.45752E-01  1.71345E+01 -1.00000E+00  1.65512E-01
      21    -1     0     0   501   511  0.000000000E+00  0.000000000E+00  2.989163758E+01  2.989163758E+01  0.000000000E+00  0.00000E+00  9.000E+00
      21    -1     0     0   502   503  0.000000000E+00  0.000000000E+00 -1.029593613E+03  1.029593613E+03  0.000000000E+00  0.00000E+00  9.000E+00
      25     1     1     2     0     0 -3.253856165E+00 -1.369412525E+01 -9.359846619E+02  9.443987788E+02  1.249945974E+02  0.00000E+00  9.000E+00
       5     1     1     2   501     0  7.933539379E-02  3.214466729E+00  1.961773727E+01  2.043910972E+01  4.750000000E+00  0.00000E+00  9.000E+00
      -5     1     1     2     0   503  1.975047902E+01  1.481878318E+01 -6.427256083E+01  6.901595708E+01  4.750000000E+00  0.00000E+00  9.000E+00
      21     1     1     2   502   511 -1.657595824E+01 -4.339124662E+00 -1.906248962E+01  2.563140466E+01  3.371747881E-07  0.00000E+00  9.000E+00
#rwgt            1           9   1.0267671598804169E-003          12     2144635           0
</event>
<event>
      6   9999  3.45752E-01  1.32943E+01 -1.00000E+00  1.75044E-01
      21    -1     0     0   501   512  0.000000000E+00  0.000000000E+00  3.404592952E+01  3.404592952E+01  0.000000000E+00  0.00000E+00  9.000E+00
      21    -1     0     0   502   503  0.000000000E+00  0.000000000E+00 -1.189769271E+03  1.189769271E+03  0.000000000E+00  0.00000E+00  9.000E+00
      25     1     1     2     0     0 -1.121141642E+01  1.730472969E+01 -1.039595469E+03  1.047286363E+03  1.249993547E+02  0.00000E+00  9.000E+00
       5     1     1     2   501     0 -7.567624889E+00 -7.936425599E+00  2.730771410E+01  2.980821275E+01  4.750000000E+00  0.00000E+00  9.000E+00
      -5     1     1     2     0   503  5.576653180E+00 -7.807406297E+00 -1.130276268E+02  1.135335262E+02  4.750000000E+00  0.00000E+00  9.000E+00
      21     1     1     2   502   512  1.320238812E+01 -1.560897795E+00 -3.040795995E+01  3.318709813E+01  0.000000000E+00  0.00000E+00  9.000E+00
#rwgt            1           9   5.7153973535751878E-005          12     2146845           0
</event>
<event>
      6   9999 -3.45752E-01  2.29669E+01 -1.00000E+00  1.55757E-01
      21    -1     0     0   501   502  0.000000000E+00  0.000000000E+00  8.332613628E+00  8.332613628E+00  0.000000000E+00  0.00000E+00  9.000E+00
      21    -1     0     0   511   503  0.000000000E+00  0.000000000E+00 -8.972134470E+02  8.972134470E+02  0.000000000E+00  0.00000E+00  9.000E+00
      25     1     1     2     0     0 -1.852295713E+01  1.340891560E+01 -6.704194925E+02  6.823561051E+02  1.249986374E+02  0.00000E+00  9.000E+00
       5     1     1     2   501     0 -1.422847769E+00  1.607723010E+00 -3.587931644E+00  6.328113663E+00  4.750000000E+00  0.00000E+00  9.000E+00
      -5     1     1     2     0   503  1.512691261E-01 -3.369539380E+00 -6.196180523E+01  6.223507440E+01  4.750000000E+00  0.00000E+00  9.000E+00
      21     1     1     2   511   502  1.979453578E+01 -1.164709923E+01 -1.529116040E+02  1.546267674E+02  2.697398305E-06  0.00000E+00  9.000E+00
#rwgt            1           9  -6.0319753258617803E-005          12     2149318           0
</event>
<event>
      6   9999  3.45752E-01  7.28024E+00 -1.00000E+00  2.02990E-01
      21    -1     0     0   501   502  0.000000000E+00  0.000000000E+00  9.025423937E+01  9.025423937E+01  0.000000000E+00  0.00000E+00  9.000E+00
      21    -1     0     0   512   503  0.000000000E+00  0.000000000E+00 -1.720768962E+03  1.720768962E+03  0.000000000E+00  0.00000E+00  9.000E+00
      25     1     1     2     0     0  6.942549895E+01 -1.050226887E+01 -2.727304899E+02  3.081093964E+02  1.249771277E+02  0.00000E+00  9.000E+00
       5     1     1     2   501     0  1.155001933E+01 -8.049631297E+00  7.054873835E+01  7.209636949E+01  4.750000000E+00  0.00000E+00  9.000E+00
      -5     1     1     2     0   503 -7.398356004E+01  2.058030266E+01 -1.319474616E+03  1.321715908E+03  4.750000000E+00  0.00000E+00  9.000E+00
      21     1     1     2   512   502 -6.991958231E+00 -2.028402500E+00 -1.088583543E+02  1.091015271E+02  1.348699152E-06  0.00000E+00  9.000E+00
#rwgt            1           9   6.2458074401731348E-004          12     2151207           0
</event>
<event>
      6   9999  3.45752E-01  2.55734E+00 -1.00000E+00  2.96399E-01
      21    -1     0     0   511   502  0.000000000E+00  0.000000000E+00  6.126428129E+01  6.126428129E+01  0.000000000E+00  0.00000E+00  9.000E+00
      21    -1     0     0   502   503  0.000000000E+00  0.000000000E+00 -1.043580802E+03  1.043580802E+03  0.000000000E+00  0.00000E+00  9.000E+00
      25     1     1     2     0     0  6.029963777E+01 -3.534275860E+01 -3.776078582E+02  4.038507919E+02  1.249904423E+02  0.00000E+00  9.000E+00
       5     1     1     2   501     0  1.702308576E+00 -2.609019189E+00  7.630318422E+00  9.512575616E+00  4.750000000E+00  0.00000E+00  9.000E+00
      -5     1     1     2     0   503 -6.290464690E+01  3.555905829E+01 -6.498556703E+02  6.538779671E+02  4.750000000E+00  0.00000E+00  9.000E+00
      21     1     1     2   511   501  9.027005587E-01  2.392719496E+00  3.751668905E+01  3.760374891E+01  1.507891493E-06  0.00000E+00  9.000E+00
#rwgt            1           9   1.9505005211912149E-003          12     2157625           0
</event>
<event>
      6   9999 -3.45752E-01  4.01733E+00 -1.00000E+00  2.47462E-01
      21    -1     0     0   501   502  0.000000000E+00  0.000000000E+00  1.045861088E+01  1.045861088E+01  0.000000000E+00  0.00000E+00  9.000E+00
      21    -1     0     0   512   503  0.000000000E+00  0.000000000E+00 -1.206403036E+03  1.206403036E+03  0.000000000E+00  0.00000E+00  9.000E+00
      25     1     1     2     0     0 -2.787043809E+00 -8.384997391E+00 -6.917680068E+02  7.030270112E+02  1.250037094E+02  0.00000E+00  9.000E+00
       5     1     1     2   501     0 -2.312665985E+00  7.600843344E-01  3.164986515E+00  6.205303521E+00  4.750000000E+00  0.00000E+00  9.000E+00
      -5     1     1     2     0   503  1.883956233E+00  5.217030076E+00 -9.930447913E+01  9.957263062E+01  4.750000000E+00  0.00000E+00  9.000E+00
      21     1     1     2   512   502  3.215753561E+00  2.407882981E+00 -4.080369257E+02  4.080567016E+02  5.394796609E-06  0.00000E+00  9.000E+00
#rwgt            1           9  -1.1702276475319110E-002          12     2165222           0
</event>
<event>
      6   9999  3.45752E-01  2.39699E+01 -1.00000E+00  1.54431E-01
      21    -1     0     0   501   502  0.000000000E+00  0.000000000E+00  1.082165158E+03  1.082165158E+03  0.000000000E+00  0.00000E+00  9.000E+00
      21    -1     0     0   502   511  0.000000000E+00  0.000000000E+00 -5.527763899E+01  5.527763899E+01  0.000000000E+00  0.00000E+00  9.000E+00
      25     1     1     2     0     0  1.959578109E+01 -7.653956530E+00  8.293998057E+01  1.514822222E+02  1.250009823E+02  0.00000E+00  9.000E+00
       5     1     1     2   501     0  3.599681519E+00 -3.390716608E+00  9.393461993E+02  9.393712255E+02  4.750000000E+00  0.00000E+00  9.000E+00
      -5     1     1     2     0   503 -1.773365624E+00  2.179873828E+01  1.713665690E+00  2.244613477E+01  4.750000000E+00  0.00000E+00  9.000E+00
      21     1     1     2   503   511 -2.142209699E+01 -1.075406514E+01  2.887673592E+00  2.414321468E+01  4.214684851E-07  0.00000E+00  9.000E+00
#rwgt            1           9   3.3488668483925554               12     2169853           0
</event>
<event>
      6   9999 -3.45752E-01  8.49378E+00 -1.00000E+00  1.94985E-01
      21    -1     0     0   501   512  0.000000000E+00  0.000000000E+00  1.424783519E+01  1.424783519E+01  0.000000000E+00  0.00000E+00  9.000E+00
      21    -1     0     0   502   503  0.000000000E+00  0.000000000E+00 -8.779983493E+02  8.779983493E+02  0.000000000E+00  0.00000E+00  9.000E+00
      25     1     1     2     0     0  8.161237640E+00 -6.669588527E+00 -2.938524748E+02  3.195069384E+02  1.249972702E+02  0.00000E+00  9.000E+00
       5     1     1     2   501     0 -1.577461206E+00  1.089326278E+00 -2.801515889E+01  2.847958292E+01  4.750000000E+00  0.00000E+00  9.000E+00
      -5     1     1     2     0   503 -1.480445371E+01  3.443736356E+00 -5.260615565E+02  5.263025318E+02  4.750000000E+00  0.00000E+00  9.000E+00
      21     1     1     2   502   512  8.220677274E+00  2.136525894E+00 -1.582132383E+01  1.795713132E+01  0.000000000E+00  0.00000E+00  9.000E+00
#rwgt            1           9  -7.4840649166955510E-005          12     2172418           0
</event>
<event>
      6   9999  3.45752E-01  2.95261E+01 -1.00000E+00  1.48287E-01
      21    -1     0     0   501   502  0.000000000E+00  0.000000000E+00  6.328368279E+01  6.328368279E+01  0.000000000E+00  0.00000E+00  9.000E+00
      21    -1     0     0   502   511  0.000000000E+00  0.000000000E+00 -1.863640473E+03  1.863640473E+03  0.000000000E+00  0.00000E+00  9.000E+00
      25     1     1     2     0     0  5.518910791E+01 -3.008641777E+01 -3.750765362E+02  4.003250033E+02  1.250066803E+02  0.00000E+00  9.000E+00
       5     1     1     2   501     0  5.113064667E+00  1.592617142E+00  4.792505082E+01  4.845671115E+01  4.750000000E+00  0.00000E+00  9.000E+00
      -5     1     1     2     0   503 -6.905063528E+01  5.669402570E+01 -1.204966571E+03  1.208283577E+03  4.750000000E+00  0.00000E+00  9.000E+00
      21     1     1     2   503   511  8.748462700E+00 -2.820022506E+01 -2.682387344E+02  2.698588648E+02  3.814697266E-06  0.00000E+00  9.000E+00
#rwgt            1           9   2.2552631636685656E-002          12     2175528           0
</event>
<event>
      6   9999  3.45752E-01  6.48830E+00 -1.00000E+00  2.09432E-01
      21    -1     0     0   501   502  0.000000000E+00  0.000000000E+00  3.300343793E+03  3.300343793E+03  0.000000000E+00  0.00000E+00  9.000E+00
      21    -1     0     0   512   503  0.000000000E+00  0.000000000E+00 -4.200146840E+00  4.200146840E+00  0.000000000E+00  0.00000E+00  9.000E+00
      25     1     1     2     0     0  1.387590926E+01 -3.207008432E+00  1.000001568E+03  1.007884371E+03  1.249997694E+02  0.00000E+00  9.000E+00
       5     1     1     2   501     0  5.177200856E-02 -1.506321198E+00  1.890807802E+03  1.890814369E+03  4.750000000E+00  0.00000E+00  9.000E+00
      -5     1     1     2     0   503 -8.414912891E+00  8.134931692E+00  3.265490657E+02  3.267932721E+02  4.750000000E+00  0.00000E+00  9.000E+00
      21     1     1     2   512   502 -5.512768379E+00 -3.421602062E+00  7.878521037E+01  7.905192818E+01  1.651812370E-06  0.00000E+00  9.000E+00
#rwgt            1           9   1.2236250772122120E-004          12     2177608           0
</event>
<event>
      6   9999  3.45752E-01  1.46677E+01 -1.00000E+00  1.71219E-01
      21    -1     0     0   501   502  0.000000000E+00  0.000000000E+00  5.097712818E+00  5.097712818E+00  0.000000000E+00  0.00000E+00  9.000E+00
       1    -1     0     0   502     0  0.000000000E+00  0.000000000E+00 -2.196116051E+03  2.196116051E+03  0.000000000E+00  0.00000E+00  9.000E+00
      25     1     1     2     0     0 -7.185838903E+00  1.981372645E-01 -8.951116235E+02  9.038258560E+02  1.249987357E+02  0.00000E+00  9.000E+00
       5     1     1     2   501     0 -9.106718606E-01 -3.628474481E-01 -1.265008450E+01  1.354799319E+01  4.750000000E+00  0.00000E+00  9.000E+00
      -5     1     1     2     0   503 -4.341960062E+00 -7.608716865E+00 -1.006085742E+02  1.011009045E+02  4.750000000E+00  0.00000E+00  9.000E+00
       1     1     1     2   503     0  1.243847083E+01  7.773427048E+00 -1.182648056E+03  1.182739010E+03  1.525878906E-05  0.00000E+00  9.000E+00
#rwgt            1           9   6.2184932337433652E-003          12     2181284           0
</event>
<event>
      6   9999 -3.45752E-01  4.54276E+00 -1.00000E+00  2.36941E-01
      21    -1     0     0   501   502  0.000000000E+00  0.000000000E+00  1.043363807E+01  1.043363807E+01  0.000000000E+00  0.00000E+00  9.000E+00
      21    -1     0     0   511   503  0.000000000E+00  0.000000000E+00 -1.198334255E+03  1.198334255E+03  0.000000000E+00  0.00000E+00  9.000E+00
      25     1     1     2     0     0  2.261617844E-01 -4.132975135E+00 -8.025711938E+02  8.122576589E+02  1.249994033E+02  0.00000E+00  9.000E+00
       5     1     1     2   501     0 -8.435620709E-01 -1.138648065E+00  2.944449643E+00  5.765448819E+00  4.750000000E+00  0.00000E+00  9.000E+00
      -5     1     1     2     0   503  1.851760837E+00  8.997793501E-01 -4.260924566E+00  6.704968250E+00  4.750000000E+00  0.00000E+00  9.000E+00
      21     1     1     2   511   502 -1.234360550E+00  4.371843849E+00 -3.840129486E+02  3.840398174E+02  5.394796609E-06  0.00000E+00  9.000E+00
#rwgt            1           9  -4.1910960077449266E-002          12     2183070           0
</event>
<event>
      6   9999  3.45752E-01  7.36076E+00 -1.00000E+00  2.02396E-01
      21    -1     0     0   512   502  0.000000000E+00  0.000000000E+00  4.109724222E+01  4.109724222E+01  0.000000000E+00  0.00000E+00  9.000E+00
      21    -1     0     0   502   503  0.000000000E+00  0.000000000E+00 -1.150855399E+03  1.150855399E+03  0.000000000E+00  0.00000E+00  9.000E+00
      25     1     1     2     0     0  6.009720649E+00 -1.353020556E+00 -1.131168894E+03  1.138071294E+03  1.250010254E+02  0.00000E+00  9.000E+00
       5     1     1     2   501     0 -1.937689626E+00 -4.584895666E-01  3.077933062E+01  3.120728356E+01  4.750000000E+00  0.00000E+00  9.000E+00
      -5     1     1     2     0   503  3.095065396E+00  3.488882288E+00 -1.289520938E+01  1.451208649E+01  4.750000000E+00  0.00000E+00  9.000E+00
      21     1     1     2   512   501 -7.167096418E+00 -1.677372165E+00  3.526616007E+00  8.161977022E+00  4.480271452E-07  0.00000E+00  9.000E+00
#rwgt            1           9   2.3087877016903027E-003          12     2187708           0
</event>
<event>
      6   9999  3.45752E-01  9.56004E+00 -1.00000E+00  1.89276E-01
       1    -1     0     0   501     0  0.000000000E+00  0.000000000E+00  1.410179103E+03  1.410179103E+03  0.000000000E+00  0.00000E+00  9.000E+00
      21    -1     0     0   502   503  0.000000000E+00  0.000000000E+00 -8.643287034E+02  8.643287034E+02  0.000000000E+00  0.00000E+00  9.000E+00
      25     1     1     2     0     0  6.756881884E+01  1.630631874E+01 -5.068694817E+02  5.266623241E+02  1.250003631E+02  0.00000E+00  9.000E+00
       5     1     1     2   501     0 -1.560725798E+01 -1.560430503E+01 -7.704759884E+01  8.028683468E+01  4.750000000E+00  0.00000E+00  9.000E+00
      -5     1     1     2     0   503 -4.259452561E+01 -2.613303789E+00 -2.671649957E+02  2.705934596E+02  4.750000000E+00  0.00000E+00  9.000E+00
       1     1     1     2   502     0 -9.367035247E+00  1.911290077E+00  1.396932475E+03  1.396965188E+03  1.525878906E-05  0.00000E+00  9.000E+00
#rwgt            1           9  0.34873787022211422               12     2192356           0
</event>
<event>
      6   9999  3.45752E-01  2.32504E+01 -1.00000E+00  1.55374E-01
      21    -1     0     0   501   502  0.000000000E+00  0.000000000E+00  3.425550754E+01  3.425550754E+01  0.000000000E+00  0.00000E+00  9.000E+00
      21    -1     0     0   502   511  0.000000000E+00  0.000000000E+00 -1.337711942E+03  1.337711942E+03  0.000000000E+00  0.00000E+00  9.000E+00
      25     1     1     2     0     0 -5.087586851E+01 -6.595449522E+01 -3.784939562E+02  4.072113142E+02  1.250001205E+02  0.00000E+00  9.000E+00
       5     1     1     2   501     0  6.024328714E+01 -2.891036054E+01 -5.986153171E+01  8.983890066E+01  4.750000000E+00  0.00000E+00  9.000E+00
      -5     1     1     2     0   503  1.065453421E+01  1.066844152E+02 -6.960802967E+02  7.043049237E+02  4.750000000E+00  0.00000E+00  9.000E+00
      21     1     1     2   503   511 -2.002195284E+01 -1.181955946E+01 -1.690206496E+02  1.706123108E+02  1.907348633E-06  0.00000E+00  9.000E+00
#rwgt            1           9   7.0668574989333852E-006          12     2194899           0
</event>
<event>
      6   9999  3.45752E-01  1.13661E+01 -1.00000E+00  1.81520E-01
      21    -1     0     0   501   502  0.000000000E+00  0.000000000E+00  3.296280987E+01  3.296280987E+01  0.000000000E+00  0.00000E+00  9.000E+00
      21    -1     0     0   502   512  0.000000000E+00  0.000000000E+00 -1.237167802E+03  1.237167802E+03  0.000000000E+00  0.00000E+00  9.000E+00
      25     1     1     2     0     0  4.018853762E-02  3.914861372E+01 -9.735492337E+02  9.823221495E+02  1.250043174E+02  0.00000E+00  9.000E+00
       5     1     1     2   501     0  4.014453225E+00 -5.861192534E+00  2.488303910E+01  2.630964742E+01  4.750000000E+00  0.00000E+00  9.000E+00
      -5     1     1     2     0   503 -1.259336510E+01 -4.078937541E+01 -1.767378362E+02  1.818823555E+02  4.750000000E+00  0.00000E+00  9.000E+00
      21     1     1     2   503   512  8.538723339E+00  7.501954225E+00 -7.880096138E+01  7.961645953E+01  0.000000000E+00  0.00000E+00  9.000E+00
#rwgt            1           9   7.8702246335712401E-005          12     2196908           0
</event>
<event>
      6   9999  3.45752E-01  4.87277E+00 -1.00000E+00  2.31349E-01
      21    -1     0     0   501   502  0.000000000E+00  0.000000000E+00  6.360185398E+02  6.360185398E+02  0.000000000E+00  0.00000E+00  9.000E+00
      21    -1     0     0   511   503  0.000000000E+00  0.000000000E+00 -3.471159475E+02  3.471159475E+02  0.000000000E+00  0.00000E+00  9.000E+00
      25     1     1     2     0     0  3.534077315E-01 -6.458000945E+00  3.579915954E+02  3.792425382E+02  1.250003589E+02  0.00000E+00  9.000E+00
       5     1     1     2   501     0 -3.977862764E-01  1.220595112E+00  1.733460001E+02  1.734158191E+02  4.750000000E+00  0.00000E+00  9.000E+00
      -5     1     1     2     0   503 -4.268207376E-01  1.008734385E+01  9.367179869E+01  9.433400793E+01  4.750000000E+00  0.00000E+00  9.000E+00
      21     1     1     2   511   502  4.711992824E-01 -4.849938017E+00 -3.361068019E+02  3.361421220E+02  3.814697266E-06  0.00000E+00  9.000E+00
#rwgt            1           9   1.5839428406207799E-003          12     2200654           0
</event>
<event>
      6   9999  3.45752E-01  8.55160E+00 -1.00000E+00  1.94648E-01
      21    -1     0     0   501   512  0.000000000E+00  0.000000000E+00  6.944411611E+00  6.944411611E+00  0.000000000E+00  0.00000E+00  9.000E+00
      21    -1     0     0   502   503  0.000000000E+00  0.000000000E+00 -3.547260526E+03  3.547260526E+03  0.000000000E+00  0.00000E+00  9.000E+00
      25     1     1     2     0     0  1.983344545E+01 -4.872046677E+01 -3.195318644E+03  3.198195324E+03  1.250001854E+02  0.00000E+00  9.000E+00
       5     1     1     2   501     0  3.425361750E+00 -1.240297324E+00  3.574357126E-01  5.996807556E+00  4.750000000E+00  0.00000E+00  9.000E+00
      -5     1     1     2     0   503 -2.439457930E+01  4.148491905E+01 -2.929147254E+02  2.968799300E+02  4.750000000E+00  0.00000E+00  9.000E+00
      21     1     1     2   502   512  1.135772102E+00  8.475845039E+00 -5.244018082E+01  5.313287581E+01  0.000000000E+00  0.00000E+00  9.000E+00
#rwgt            1           9   1.9125208245328444E-003          12     2204440           0
</event>
<event>
      6   9999  3.45752E-01  7.44412E+00 -1.00000E+00  2.01792E-01
      21    -1     0     0   501   511  0.000000000E+00  0.000000000E+00  1.068090851E+01  1.068090851E+01  0.000000000E+00  0.00000E+00  9.000E+00
      21    -1     0     0   502   503  0.000000000E+00  0.000000000E+00 -7.317389170E+02  7.317389170E+02  0.000000000E+00  0.00000E+00  9.000E+00
      25     1     1     2     0     0  1.842038897E+01 -3.371761005E+00 -5.483650597E+02  5.627434177E+02  1.250009436E+02  0.00000E+00  9.000E+00
       5     1     1     2   501     0 -8.012215343E+00  1.830229914E+00 -6.399544400E+01  6.469563115E+01  4.750000000E+00  0.00000E+00  9.000E+00
      -5     1     1     2     0   503 -8.715990155E+00 -5.707702022E+00 -1.066462996E+02  1.072592284E+02  4.750000000E+00  0.00000E+00  9.000E+00
      21     1     1     2   502   511 -1.692183475E+00  7.249233113E+00 -2.051205102E+00  7.721548291E+00  3.998401125E-07  0.00000E+00  9.000E+00
#rwgt            1           9  0.31913319899390796               12     2207424           0
</event>
<event>
      6   9999  3.45752E-01  6.99291E+01 -1.00000E+00  1.27428E-01
      21    -1     0     0   501   512  0.000000000E+00  0.000000000E+00  3.646559980E+02  3.646559980E+02  0.000000000E+00  0.00000E+00  9.000E+00
      21    -1     0     0   502   503  0.000000000E+00  0.000000000E+00 -2.621358433E+03  2.621358433E+03  0.000000000E+00  0.00000E+00  9.000E+00
      25     1     1     2     0     0  2.913786906E+02  8.332373570E+02 -1.141839324E+03  1.448657416E+03  1.250009274E+02  0.00000E+00  9.000E+00
       5     1     1     2   501     0 -1.642296079E+00  7.847419276E-01  6.094578686E+01  6.115770100E+01  4.750000000E+00  0.00000E+00  9.000E+00
      -5     1     1     2     0   503 -2.734710487E+02 -7.660109834E+02 -1.131147260E+03  1.393225009E+03  4.750000000E+00  0.00000E+00  9.000E+00
      21     1     1     2   502   512 -1.626534581E+01 -6.801111551E+01 -4.466163778E+01  8.297430444E+01  2.023048729E-06  0.00000E+00  9.000E+00
#rwgt            1           9   4.7766073093583441E-004          12     2209935           0
</event>
<event>
      6   9999  3.45752E-01  6.56135E+00 -1.00000E+00  2.08787E-01
      21    -1     0     0   501   502  0.000000000E+00  0.000000000E+00  9.981127772E+00  9.981127772E+00  0.000000000E+00  0.00000E+00  9.000E+00
      21    -1     0     0   502   511  0.000000000E+00  0.000000000E+00 -8.851982742E+02  8.851982742E+02  0.000000000E+00  0.00000E+00  9.000E+00
      25     1     1     2     0     0 -3.333543887E+01  1.160179848E+00 -5.209538834E+02  5.367876194E+02  1.250416018E+02  0.00000E+00  9.000E+00
       5     1     1     2   501     0 -9.377046941E-01 -3.801159870E-03 -3.680279547E+00  6.081633176E+00  4.750000000E+00  0.00000E+00  9.000E+00
      -5     1     1     2     0   503  2.778878515E+01 -2.158576545E+00 -2.872672078E+02  2.886553086E+02  4.750000000E+00  0.00000E+00  9.000E+00
      21     1     1     2   503   511  6.484358423E+00  1.002197856E+00 -6.331577571E+01  6.365484081E+01  6.743495762E-07  0.00000E+00  9.000E+00
#rwgt            1           9   7.4298007516469769E-002          12     2211886           0
</event>
<event>
      6   9999  3.45752E-01  3.47130E+00 -1.00000E+00  2.61323E-01
      21    -1     0     0   501   502  0.000000000E+00  0.000000000E+00  1.401590665E+01  1.401590665E+01  0.000000000E+00  0.00000E+00  9.000E+00
      21    -1     0     0   512   503  0.000000000E+00  0.000000000E+00 -5.563883800E+02  5.563883800E+02  0.000000000E+00  0.00000E+00  9.000E+00
      25     1     1     2     0     0 -4.353036377E+00 -3.336902575E+00 -4.344437020E+02  4.521046189E+02  1.250086894E+02  0.00000E+00  9.000E+00
       5     1     1     2   501     0  1.070023848E-01  1.460713595E+00  2.620068996E+00  5.618931861E+00  4.750000000E+00  0.00000E+00  9.000E+00
      -5     1     1     2     0   503  1.693422899E+00  4.228662309E+00 -9.413799247E+00  1.148613870E+01  4.750000000E+00  0.00000E+00  9.000E+00
      21     1     1     2   512   502  2.552611093E+00 -2.352473330E+00 -1.011350411E+02  1.011945972E+02  0.000000000E+00  0.00000E+00  9.000E+00
#rwgt            1           9   2.5267553012226949E-004          12     2215130           0
</event>
<event>
      6   9999 -3.45752E-01  1.03027E+01 -1.00000E+00  1.85840E-01
      21    -1     0     0   501   502  0.000000000E+00  0.000000000E+00  1.234120055E+01  1.234120055E+01  0.000000000E+00  0.00000E+00  9.000E+00
      21    -1     0     0   502   511  0.000000000E+00  0.000000000E+00 -9.110309720E+02  9.110309720E+02  0.000000000E+00  0.00000E+00  9.000E+00
      25     1     1     2     0     0 -1.244630755E+01 -1.240907300E+01 -6.064695568E+02  6.194663065E+02  1.249971437E+02  0.00000E+00  9.000E+00
       5     1     1     2   501     0 -1.456265484E-01 -2.189674109E+00  3.320856117E+00  6.197294986E+00  4.750000000E+00  0.00000E+00  9.000E+00
      -5     1     1     2     0   503  2.060139435E+01  8.118409697E+00 -1.393706089E+02  1.411986373E+02  4.750000000E+00  0.00000E+00  9.000E+00
      21     1     1     2   503   511 -8.009460253E+00  6.480337415E+00 -1.561704618E+02  1.565099338E+02  1.907348633E-06  0.00000E+00  9.000E+00
#rwgt            1           9  -7.8778532786507940E-003          12     2219772           0
</event>
<event>
      6   9999  3.45752E-01  2.45394E+01 -1.00000E+00  1.53713E-01
      21    -1     0     0   501   502  0.000000000E+00  0.000000000E+00  6.038925886E+02  6.038925886E+02  0.000000000E+00  0.00000E+00  9.000E+00
       2    -1     0     0   502     0  0.000000000E+00  0.000000000E+00 -9.940806743E+01  9.940806743E+01  0.000000000E+00  0.00000E+00  9.000E+00
      25     1     1     2     0     0 -1.111892370E+01  1.699700495E+00  4.222474719E+02  4.405046030E+02  1.249994333E+02  0.00000E+00  9.000E+00
       5     1     1     2   501     0 -2.952929163E+00  1.091087142E+00  1.316164386E+02  1.317397422E+02  4.750000000E+00  0.00000E+00  9.000E+00
      -5     1     1     2     0   503 -1.034576817E+01 -3.488677125E-01  3.832605147E+01  3.998256306E+01  4.750000000E+00  0.00000E+00  9.000E+00
       2     1     1     2   503     0  2.441762103E+01 -2.441919925E+00 -8.770544078E+01  9.107374776E+01  9.536743164E-07  0.00000E+00  9.000E+00
#rwgt            1           9  0.28152894915121107               12     2222453           0
</event>
<event>
      6   9999  3.45752E-01  1.22114E+01 -1.00000E+00  1.78495E-01
      21    -1     0     0   501   511  0.000000000E+00  0.000000000E+00  4.509330433E+00  4.509330433E+00  0.000000000E+00  0.00000E+00  9.000E+00
      21    -1     0     0   502   503  0.000000000E+00  0.000000000E+00 -1.849866116E+03  1.849866116E+03  0.000000000E+00  0.00000E+00  9.000E+00
      25     1     1     2     0     0 -6.898742348E-01  1.749097654E+01 -1.370002791E+03  1.375804644E+03  1.249974419E+02  0.00000E+00  9.000E+00
       5     1     1     2   501     0 -3.782412676E-01  5.096386256E-01 -1.310948483E+01  1.395793289E+01  4.750000000E+00  0.00000E+00  9.000E+00
      -5     1     1     2     0   503 -5.075085186E+00 -7.446935355E+00 -4.301978376E+02  4.303184348E+02  4.750000000E+00  0.00000E+00  9.000E+00
      21     1     1     2   502   511  6.143200688E+00 -1.055367981E+01 -3.204667219E+01  3.429443498E+01  1.168007728E-06  0.00000E+00  9.000E+00
#rwgt            1           9   6.0805852367915945               12     2223702           0
</event>
<event>
      6   9999 -3.45752E-01  4.96424E+01 -1.00000E+00  1.34955E-01
      21    -1     0     0   512   502  0.000000000E+00  0.000000000E+00  1.656254300E+01  1.656254300E+01  0.000000000E+00  0.00000E+00  9.000E+00
      21    -1     0     0   502   503  0.000000000E+00  0.000000000E+00 -1.974416160E+03  1.974416160E+03  0.000000000E+00  0.00000E+00  9.000E+00
      25     1     1     2     0     0  5.451431964E+01  1.865108953E+00 -1.743289651E+03  1.748615571E+03  1.249892717E+02  0.00000E+00  9.000E+00
       5     1     1     2   501     0 -2.362499390E+00  9.388323480E+00 -2.734284637E+01  2.939244408E+01  4.750000000E+00  0.00000E+00  9.000E+00
      -5     1     1     2     0   503 -1.171602171E+01  1.754441703E+01 -1.483569855E+02  1.499247457E+02  4.750000000E+00  0.00000E+00  9.000E+00
      21     1     1     2   512   501 -4.043579854E+01 -2.879784947E+01 -3.886413466E+01  6.304594277E+01  1.430511475E-06  0.00000E+00  9.000E+00
#rwgt            1           9 -0.24161091140269611               12     2225472           0
</event>
<event>
      6   9999  3.45752E-01  7.23468E+00 -1.00000E+00  2.03330E-01
      21    -1     0     0   501   511  0.000000000E+00  0.000000000E+00  1.433255284E+01  1.433255284E+01  0.000000000E+00  0.00000E+00  9.000E+00
      21    -1     0     0   502   503  0.000000000E+00  0.000000000E+00 -1.482100686E+03  1.482100686E+03  0.000000000E+00  0.00000E+00  9.000E+00
      25     1     1     2     0     0  1.878226306E+00 -1.998698028E+00 -1.292354758E+03  1.298389002E+03  1.250026308E+02  0.00000E+00  9.000E+00
       5     1     1     2   501     0  2.700926155E+00  2.194185567E+00 -1.075548575E+00  5.985712751E+00  4.750000000E+00  0.00000E+00  9.000E+00
      -5     1     1     2     0   503 -1.195516850E+00  6.199168693E+00 -1.816210168E+02  1.817927809E+02  4.750000000E+00  0.00000E+00  9.000E+00
      21     1     1     2   502   511 -3.383635610E+00 -6.394656233E+00  7.283190301E+00  1.026574300E+01  7.152557373E-07  0.00000E+00  9.000E+00
#rwgt            1           9   1.2028931463836663               12     2226370           0
</event>
<event>
      6   9999 -3.45752E-01  9.99746E+00 -1.00000E+00  1.87205E-01
      21    -1     0     0   512   502  0.000000000E+00  0.000000000E+00  1.613214167E+01  1.613214167E+01  0.000000000E+00  0.00000E+00  9.000E+00
      21    -1     0     0   502   503  0.000000000E+00  0.000000000E+00 -8.601722724E+02  8.601722724E+02  0.000000000E+00  0.00000E+00  9.000E+00
      25     1     1     2     0     0  1.082042892E+01 -9.668381469E+00 -8.035310302E+02  8.133243196E+02  1.249950921E+02  0.00000E+00  9.000E+00
       5     1     1     2   501     0 -3.105443948E+00  2.782854481E+00  2.246698793E+00  6.708071007E+00  4.750000000E+00  0.00000E+00  9.000E+00
      -5     1     1     2     0   503 -1.524049662E+01  1.346700721E+01 -4.114961979E+01  4.614636204E+01  4.750000000E+00  0.00000E+00  9.000E+00
      21     1     1     2   512   501  7.525511649E+00 -6.581480227E+00 -1.606179576E+00  1.012566148E+01  3.998401125E-07  0.00000E+00  9.000E+00
#rwgt            1           9  -2.5396858108761677E-003          12     2229444           0
</event>
<event>
      6   9999 -3.45752E-01  1.46424E+01 -1.00000E+00  1.71285E-01
      21    -1     0     0   501   502  0.000000000E+00  0.000000000E+00  2.035644167E+01  2.035644167E+01  0.000000000E+00  0.00000E+00  9.000E+00
      21    -1     0     0   502   511  0.000000000E+00  0.000000000E+00 -1.406937794E+03  1.406937794E+03  0.000000000E+00  0.00000E+00  9.000E+00
      25     1     1     2     0     0 -4.236552544E+01  5.503613158E+00 -2.802102618E+02  3.097782074E+02  1.249784760E+02  0.00000E+00  9.000E+00
       5     1     1     2   501     0  1.464125577E+00 -2.104490670E-01  3.046080800E+00  5.833443302E+00  4.750000000E+00  0.00000E+00  9.000E+00
      -5     1     1     2     0   503  4.666680542E+01 -1.875276400E+01 -6.229070944E+02  6.249522123E+02  4.750000000E+00  0.00000E+00  9.000E+00
      21     1     1     2   503   511 -5.765405565E+00  1.345959991E+01 -4.865100767E+02  4.867303725E+02  7.629394531E-06  0.00000E+00  9.000E+00
#rwgt            1           9  -7.0380679313915756E-002          12     2232818           0
</event>
<event>
      6   9999  3.45752E-01  1.60794E+01 -1.00000E+00  1.67797E-01
      21    -1     0     0   501   512  0.000000000E+00  0.000000000E+00  8.731010660E+00  8.731010660E+00  0.000000000E+00  0.00000E+00  9.000E+00
      21    -1     0     0   502   503  0.000000000E+00  0.000000000E+00 -7.304656212E+02  7.304656212E+02  0.000000000E+00  0.00000E+00  9.000E+00
      25     1     1     2     0     0 -1.207085791E+01 -1.138276051E+01 -6.201016388E+02  6.327957193E+02  1.250164269E+02  0.00000E+00  9.000E+00
       5     1     1     2   501     0 -7.830670386E-01  1.182625583E+00 -2.337570694E+01  2.389556386E+01  4.750000000E+00  0.00000E+00  9.000E+00
      -5     1     1     2     0   503  3.048044192E+00 -2.543219847E+00 -4.649137807E+01  4.690169800E+01  4.750000000E+00  0.00000E+00  9.000E+00
      21     1     1     2   502   512  9.805880752E+00  1.274335477E+01 -3.176588676E+01  3.560365079E+01  3.371747881E-07  0.00000E+00  9.000E+00
#rwgt            1           9  0.23536628657129618               12     2234845           0
</event>
<event>
      6   9999  3.45752E-01  1.10270E+01 -1.00000E+00  1.82830E-01
      21    -1     0     0   502   511  0.000000000E+00  0.000000000E+00  1.216070829E+01  1.216070829E+01  0.000000000E+00  0.00000E+00  9.000E+00
      21    -1     0     0   501   502  0.000000000E+00  0.000000000E+00 -9.095773834E+02  9.095773834E+02  0.000000000E+00  0.00000E+00  9.000E+00
      25     1     1     2     0     0 -2.034587446E+00 -2.924518810E+01 -4.620399697E+02  4.795471054E+02  1.250002882E+02  0.00000E+00  9.000E+00
       5     1     1     2   501     0  3.128159908E+01  1.589961699E+01 -2.657784818E+02  2.681270225E+02  4.750000000E+00  0.00000E+00  9.000E+00
      -5     1     1     2     0   503 -1.991845778E+01  1.922539429E+01 -1.260268460E+02  1.291188954E+02  4.750000000E+00  0.00000E+00  9.000E+00
      21     1     1     2   503   511 -9.328553858E+00 -5.879823173E+00 -4.357137755E+01  4.494506847E+01  4.768371582E-07  0.00000E+00  9.000E+00
#rwgt            1           9   5.3870643572745047E-003          12     2236342           0
</event>
<event>
      6   9999  3.45752E-01  5.08060E+00 -1.00000E+00  2.24641E-01
      21    -1     0     0   501   502  0.000000000E+00  0.000000000E+00  7.103300307E+00  7.103300307E+00  0.000000000E+00  0.00000E+00  9.000E+00
      21    -1     0     0   502   512  0.000000000E+00  0.000000000E+00 -7.998991967E+02  7.998991967E+02  0.000000000E+00  0.00000E+00  9.000E+00
      25     1     1     2     0     0 -2.486398479E+00 -2.730760174E+00 -5.674568823E+02  5.810732278E+02  1.250005744E+02  0.00000E+00  9.000E+00
       5     1     1     2   501     0  2.576093542E+00 -3.310969410E-01 -5.128559296E+01  5.157053838E+01  4.750000000E+00  0.00000E+00  9.000E+00
      -5     1     1     2     0   503 -1.421402032E-01 -2.018476494E+00 -7.756963834E+01  7.774127439E+01  4.750000000E+00  0.00000E+00  9.000E+00
      21     1     1     2   503   512  5.244513957E-02  5.080333609E+00 -9.648378279E+01  9.661745640E+01  1.348699152E-06  0.00000E+00  9.000E+00
#rwgt            1           9   5.3597426922290786E-003          12     2238774           0
</event>
<event>
      6   9999 -3.45752E-01  2.27974E+01 -1.00000E+00  1.55988E-01
      21    -1     0     0   511   502  0.000000000E+00  0.000000000E+00  1.201043165E+01  1.201043165E+01  0.000000000E+00  0.00000E+00  9.000E+00
      21    -1     0     0   502   503  0.000000000E+00  0.000000000E+00 -8.591496707E+02  8.591496707E+02  0.000000000E+00  0.00000E+00  9.000E+00
      25     1     1     2     0     0  8.726659221E+00  7.270164540E+00 -7.732045674E+02  7.833282678E+02  1.250154479E+02  0.00000E+00  9.000E+00
       5     1     1     2   501     0  3.463854876E+00  1.586735574E+00 -3.094471589E-01  6.097071258E+00  4.750000000E+00  0.00000E+00  9.000E+00
      -5     1     1     2     0   503  3.822713199E+00  7.369622161E+00 -8.723417968E+00  1.294546206E+01  4.750000000E+00  0.00000E+00  9.000E+00
      21     1     1     2   511   501 -1.601322730E+01 -1.622652228E+01 -6.490180653E+01  6.878930124E+01  9.536743164E-07  0.00000E+00  9.000E+00
#rwgt            1           9  -9.2604880738153712E-003          12     2242109           0
</event>
<event>
      6   9999  3.45752E-01  7.17405E+00 -1.00000E+00  2.03788E-01
      21    -1     0     0   501   502  0.000000000E+00  0.000000000E+00  6.008510682E+00  6.008510682E+00  0.000000000E+00  0.00000E+00  9.000E+00
      21    -1     0     0   512   503  0.000000000E+00  0.000000000E+00 -1.228280387E+03  1.228280387E+03  0.000000000E+00  0.00000E+00  9.000E+00
      25     1     1     2     0     0 -5.911791671E-01 -5.921399662E+00 -7.142286214E+02  7.251089999E+02  1.250005029E+02  0.00000E+00  9.000E+00
       5     1     1     2   501     0  1.304050348E-01 -2.341609435E-01 -1.423805315E+01  1.501187844E+01  4.750000000E+00  0.00000E+00  9.000E+00
      -5     1     1     2     0   503  1.678987328E-01 -1.012511404E+00 -3.839521150E+01  3.870152627E+01  4.750000000E+00  0.00000E+00  9.000E+00
      21     1     1     2   512   502  2.928753995E-01  7.168072009E+00 -4.554099905E+02  4.554664933E+02  0.000000000E+00  0.00000E+00  9.000E+00
#rwgt            1           9   4.1789199508225318E-005          12     2243335           0
</event>
<event>
      6   9999  3.45752E-01  4.09660E+01 -1.00000E+00  1.39587E-01
      21    -1     0     0   501   502  0.000000000E+00  0.000000000E+00  4.093794212E+01  4.093794212E+01  0.000000000E+00  0.00000E+00  9.000E+00
      21    -1     0     0   502   511  0.000000000E+00  0.000000000E+00 -4.291213491E+02  4.291213491E+02  0.000000000E+00  0.00000E+00  9.000E+00
      25     1     1     2     0     0 -9.268859102E-01 -9.374557463E+00 -2.494463133E+02  2.791732336E+02  1.250019588E+02  0.00000E+00  9.000E+00
       5     1     1     2   501     0  2.539995811E+01  2.047292264E+01 -1.177015326E+01  3.500567727E+01  4.750000000E+00  0.00000E+00  9.000E+00
      -5     1     1     2     0   503  1.578075138E+01 -3.493002778E+00  5.103532066E+00  1.760232150E+01  4.750000000E+00  0.00000E+00  9.000E+00
      21     1     1     2   503   511 -4.025382358E+01 -7.605362396E+00 -1.320704725E+02  1.382780588E+02  0.000000000E+00  0.00000E+00  9.000E+00
#rwgt            1           9  0.30162203204718330               12     2246104           0
</event>
<event>
      6   9999  3.45752E-01  9.64238E+00 -1.00000E+00  1.88875E-01
      21    -1     0     0   512   502  0.000000000E+00  0.000000000E+00  4.932233967E+01  4.932233967E+01  0.000000000E+00  0.00000E+00  9.000E+00
      21    -1     0     0   502   503  0.000000000E+00  0.000000000E+00 -7.401776508E+02  7.401776508E+02  0.000000000E+00  0.00000E+00  9.000E+00
      25     1     1     2     0     0 -9.495669986E+00 -2.738401871E+00 -7.210871461E+02  7.319081036E+02  1.250005330E+02  0.00000E+00  9.000E+00
       5     1     1     2   501     0 -3.143385843E-01  4.973086549E-02 -6.054584069E+00  7.702062721E+00  4.750000000E+00  0.00000E+00  9.000E+00
      -5     1     1     2     0   503  1.976365194E-01  3.448822224E+00 -4.863312221E+00  7.625466588E+00  4.750000000E+00  0.00000E+00  9.000E+00
      21     1     1     2   512   501  9.612372051E+00 -7.601512187E-01  4.114973132E+01  4.226435749E+01  9.536743164E-07  0.00000E+00  9.000E+00
#rwgt            1           9   1.6749340833617022E-004          12     2246829           0
</event>
<event>
      6   9999  3.45752E-01  1.08682E+01 -1.00000E+00  1.83464E-01
      21    -1     0     0   501   502  0.000000000E+00  0.000000000E+00  2.936734916E+01  2.936734916E+01  0.000000000E+00  0.00000E+00  9.000E+00
      21    -1     0     0   502   511  0.000000000E+00  0.000000000E+00 -1.111535591E+03  1.111535591E+03  0.000000000E+00  0.00000E+00  9.000E+00
      25     1     1     2     0     0 -7.708940009E+01 -6.418132717E+01 -4.712978331E+02  4.978029612E+02  1.249964889E+02  0.00000E+00  9.000E+00
       5     1     1     2   501     0 -1.819998017E+00 -6.674200560E-01  1.138119482E+01  1.248406736E+01  4.750000000E+00  0.00000E+00  9.000E+00
      -5     1     1     2     0   503  7.045889454E+01  5.801451927E+01 -5.466866273E+02  5.542733723E+02  4.750000000E+00  0.00000E+00  9.000E+00
      21     1     1     2   503   511  8.450503572E+00  6.834227954E+00 -7.556497636E+01  7.634253948E+01  9.536743164E-07  0.00000E+00  9.000E+00
#rwgt            1           9  0.11880107158939426               12     2249726           0
</event>
<event>
      6   9999  3.45752E-01  2.80053E+00 -1.00000E+00  2.84968E-01
      21    -1     0     0   501   502  0.000000000E+00  0.000000000E+00  4.232631176E+01  4.232631176E+01  0.000000000E+00  0.00000E+00  9.000E+00
      21    -1     0     0   502   512  0.000000000E+00  0.000000000E+00 -1.732370189E+03  1.732370189E+03  0.000000000E+00  0.00000E+00  9.000E+00
      25     1     1     2     0     0  8.130775475E+00  2.838557400E+00 -1.369825603E+03  1.375543976E+03  1.249995187E+02  0.00000E+00  9.000E+00
       5     1     1     2   501     0 -6.996007461E-01 -2.805936553E+00  3.862608102E+01  3.902434313E+01  4.750000000E+00  0.00000E+00  9.000E+00
      -5     1     1     2     0   503 -7.335120517E+00 -2.831499669E+00 -3.253884154E+01  3.381065057E+01  4.750000000E+00  0.00000E+00  9.000E+00
      21     1     1     2   503   512 -9.605421145E-02  2.798878823E+00 -3.263055139E+02  3.263175315E+02  0.000000000E+00  0.00000E+00  9.000E+00
#rwgt            1           9   2.1316897391597750E-003          12     2252821           0
</event>
<event>
      6   9999  3.45752E-01  6.72346E+00 -1.00000E+00  2.07395E-01
      -2    -1     0     0     0   511  0.000000000E+00  0.000000000E+00  5.958948732E+01  5.958948732E+01  0.000000000E+00  0.00000E+00  9.000E+00
       2    -1     0     0   501     0  0.000000000E+00  0.000000000E+00 -2.898164382E+03  2.898164382E+03  0.000000000E+00  0.00000E+00  9.000E+00
      25     1     1     2     0     0  3.709890293E+02  3.708553480E+01 -1.963196884E+03  2.002192711E+03  1.250017957E+02  0.00000E+00  9.000E+00
       5     1     1     2   501     0 -1.987383911E+01 -4.109447348E+00 -1.790914500E+01  2.748012033E+01  4.750000000E+00  0.00000E+00  9.000E+00
      -5     1     1     2     0   502 -3.446877078E+02 -3.494901332E+01 -8.506302876E+02  9.184908809E+02  4.750000000E+00  0.00000E+00  9.000E+00
      21     1     1     2   502   511 -6.427482409E+00  1.972925870E+00 -6.838577605E+00  9.590156947E+00  2.064765462E-07  0.00000E+00  9.000E+00
#rwgt            1           3   8.5625538364263483E-005          12     2262217           0
</event>
<event>
      6   9999  3.45752E-01  1.00289E+01 -1.00000E+00  1.87062E-01
      21    -1     0     0   501   512  0.000000000E+00  0.000000000E+00  1.241011386E+02  1.241011386E+02  0.000000000E+00  0.00000E+00  9.000E+00
      21    -1     0     0   502   503  0.000000000E+00  0.000000000E+00 -8.537633325E+02  8.537633325E+02  0.000000000E+00  0.00000E+00  9.000E+00
      25     1     1     2     0     0 -7.359332571E-01  1.254581532E+01 -8.229205093E+02  8.324549656E+02  1.250006640E+02  0.00000E+00  9.000E+00
       5     1     1     2   501     0  2.670786780E+00  3.192422375E+00  4.226765381E+00  7.599520263E+00  4.750000000E+00  0.00000E+00  9.000E+00
      -5     1     1     2     0   503  5.024118528E+00 -8.516673770E+00 -2.292010591E+01  2.541002271E+01  4.750000000E+00  0.00000E+00  9.000E+00
      21     1     1     2   502   512 -6.958972050E+00 -7.221563920E+00  1.119516560E+02  1.123999624E+02  3.568322551E-06  0.00000E+00  9.000E+00
#rwgt            1           9  0.22204440621652075               12     2273431           0
</event>
<event>
      6   9999  3.45752E-01  3.25799E+01 -1.00000E+00  1.45557E-01
      21    -1     0     0   501   502  0.000000000E+00  0.000000000E+00  4.249730406E+02  4.249730406E+02  0.000000000E+00  0.00000E+00  9.000E+00
      21    -1     0     0   511   503  0.000000000E+00  0.000000000E+00 -1.016679581E+02  1.016679581E+02  0.000000000E+00  0.00000E+00  9.000E+00
      25     1     1     2     0     0  5.257978285E+00 -2.483513865E+01 -4.318114432E+00  1.276234706E+02  1.249986947E+02  0.00000E+00  9.000E+00
       5     1     1     2   501     0  9.913049256E+00  1.136405756E+01  2.881040709E+02  2.885375687E+02  4.750000000E+00  0.00000E+00  9.000E+00
      -5     1     1     2     0   503  9.947289664E+00  3.422011357E+01  6.145847786E+01  7.120162741E+01  4.750000000E+00  0.00000E+00  9.000E+00
      21     1     1     2   511   502 -2.511831721E+01 -2.074903248E+01 -2.193935190E+01  3.927833207E+01  8.259061849E-07  0.00000E+00  9.000E+00
#rwgt            1           9   5.5838451249563478E-004          12     2276545           0
</event>
<event>
      6   9999  3.45752E-01  3.73685E+01 -1.00000E+00  1.41922E-01
       1    -1     0     0   501     0  0.000000000E+00  0.000000000E+00  1.632507722E+02  1.632507722E+02  0.000000000E+00  0.00000E+00  9.000E+00
      21    -1     0     0   502   503  0.000000000E+00  0.000000000E+00 -1.471588078E+03  1.471588078E+03  0.000000000E+00  0.00000E+00  9.000E+00
      25     1     1     2     0     0 -7.814397138E+00 -5.199045983E+01 -1.361396211E+03  1.368132946E+03  1.249961645E+02  0.00000E+00  9.000E+00
       5     1     1     2   501     0  2.636042769E+00  1.655328018E+01  6.289808292E+01  6.526630939E+01  4.750000000E+00  0.00000E+00  9.000E+00
      -5     1     1     2     0   503  2.439686327E-01 -1.604062320E+00 -1.019312321E+02  1.020547457E+02  4.750000000E+00  0.00000E+00  9.000E+00
       1     1     1     2   502     0  4.934385736E+00  3.704124197E+01  9.209205448E+01  9.938484929E+01  3.303624740E-06  0.00000E+00  9.000E+00
#rwgt            1           9  0.41617062668557608               12     2278005           0
</event>
<event>
      6   9999  3.45752E-01  7.98764E+00 -1.00000E+00  1.98095E-01
      21    -1     0     0   501   502  0.000000000E+00  0.000000000E+00  2.080507812E+01  2.080507812E+01  0.000000000E+00  0.00000E+00  9.000E+00
      21    -1     0     0   511   503  0.000000000E+00  0.000000000E+00 -1.044136645E+03  1.044136645E+03  0.000000000E+00  0.00000E+00  9.000E+00
      25     1     1     2     0     0  7.423828416E+00  6.768857019E+01 -8.127866196E+02  8.251569468E+02  1.250001682E+02  0.00000E+00  9.000E+00
       5     1     1     2   501     0  2.061284000E+00 -8.908773807E-01  8.127976729E+00  9.678277736E+00  4.750000000E+00  0.00000E+00  9.000E+00
      -5     1     1     2     0   503 -2.294159212E+00 -6.332026276E+01 -1.900766225E+02  2.004155776E+02  4.750000000E+00  0.00000E+00  9.000E+00
      21     1     1     2   511   502 -7.190953205E+00 -3.477430051E+00 -2.859630134E+01  2.969092081E+01  0.000000000E+00  0.00000E+00  9.000E+00
#rwgt            1           9   1.8615873829013429E-002          12     2280201           0
</event>
<event>
      6   9999  3.45752E-01  1.16426E+02 -1.00000E+00  1.17694E-01
      21    -1     0     0   512   502  0.000000000E+00  0.000000000E+00  6.605725095E+01  6.605725095E+01  0.000000000E+00  0.00000E+00  9.000E+00
      21    -1     0     0   502   503  0.000000000E+00  0.000000000E+00 -1.443937974E+03  1.443937974E+03  0.000000000E+00  0.00000E+00  9.000E+00
      25     1     1     2     0     0  4.952023521E+01 -2.276132151E+01 -3.962874077E+02  4.191047235E+02  1.250389071E+02  0.00000E+00  9.000E+00
       5     1     1     2   501     0 -2.230886559E+01  1.990908675E+02 -3.178468621E+02  3.757446596E+02  4.750000000E+00  0.00000E+00  9.000E+00
      -5     1     1     2     0   503  2.851634798E+01 -7.410702059E+01 -5.377192305E+02  5.435711232E+02  4.750000000E+00  0.00000E+00  9.000E+00
      21     1     1     2   512   501 -5.572771759E+01 -1.022225254E+02 -1.260272229E+02  1.715747188E+02  1.907348633E-06  0.00000E+00  9.000E+00
#rwgt            1           9   1.4139482069813365E-002          12     2283699           0
</event>
<event>
      6   9999 -3.45752E-01  5.94349E+01 -1.00000E+00  1.30890E-01
      21    -1     0     0   501   511  0.000000000E+00  0.000000000E+00  3.695083843E+02  3.695083843E+02  0.000000000E+00  0.00000E+00  9.000E+00
      21    -1     0     0   502   503  0.000000000E+00  0.000000000E+00 -1.073518149E+03  1.073518149E+03  0.000000000E+00  0.00000E+00  9.000E+00
      25     1     1     2     0     0 -1.921504386E+01 -7.043233902E+01 -8.512607112E+02  8.634811736E+02  1.250000259E+02  0.00000E+00  9.000E+00
       5     1     1     2   501     0 -3.968927093E+00 -4.507646437E-01 -3.186629248E+00  6.976580609E+00  4.750000000E+00  0.00000E+00  9.000E+00
      -5     1     1     2     0   503 -3.614316272E+01  7.446034313E+01 -2.003270094E+02  2.168043913E+02  4.750000000E+00  0.00000E+00  9.000E+00
      21     1     1     2   502   511  5.932713368E+01 -3.577239464E+00  3.507645851E+02  3.557643878E+02  5.394796609E-06  0.00000E+00  9.000E+00
#rwgt            1           9  -1.6682164117473567E-004          12     2284188           0
</event>
<event>
      6   9999  3.45752E-01  4.09218E+01 -1.00000E+00  1.39614E-01
      21    -1     0     0   501   502  0.000000000E+00  0.000000000E+00  2.340640471E+01  2.340640471E+01  0.000000000E+00  0.00000E+00  9.000E+00
       2    -1     0     0   502     0  0.000000000E+00  0.000000000E+00 -1.215651913E+03  1.215651913E+03  0.000000000E+00  0.00000E+00  9.000E+00
      25     1     1     2     0     0  5.234196858E+01 -2.397348791E+01 -3.903768357E+02  4.139244843E+02  1.249999804E+02  0.00000E+00  9.000E+00
       5     1     1     2   501     0 -3.355257391E+01 -2.591546700E+01 -4.664514440E+01  6.321169703E+01  4.750000000E+00  0.00000E+00  9.000E+00
      -5     1     1     2     0   503  1.300795143E+01  2.413000188E+01 -6.786205241E+01  7.334360537E+01  4.750000000E+00  0.00000E+00  9.000E+00
       2     1     1     2   503     0 -3.179734609E+01  2.575895302E+01 -6.873614757E+02  6.885785308E+02  0.000000000E+00  0.00000E+00  9.000E+00
#rwgt            1           9   9602.6377896533686               12     2284901           0
</event>
<event>
      6   9999  3.45752E-01  7.80354E+01 -1.00000E+00  1.25197E-01
      21    -1     0     0   501   502  0.000000000E+00  0.000000000E+00  7.144266969E+01  7.144266969E+01  0.000000000E+00  0.00000E+00  9.000E+00
      21    -1     0     0   502   511  0.000000000E+00  0.000000000E+00 -1.740906238E+03  1.740906238E+03  0.000000000E+00  0.00000E+00  9.000E+00
      25     1     1     2     0     0 -1.717278331E+02 -1.000042301E+02 -1.190509106E+03  1.213436296E+03  1.249976701E+02  0.00000E+00  9.000E+00
       5     1     1     2   501     0  7.531606296E+01  1.939593154E+00  9.831242293E+00  7.612809722E+01  4.750000000E+00  0.00000E+00  9.000E+00
      -5     1     1     2     0   503  1.963179234E+01  8.412340985E+01 -1.338775882E+02  1.593986402E+02  4.750000000E+00  0.00000E+00  9.000E+00
      21     1     1     2   503   511  7.677997781E+01  1.394122705E+01 -3.549081158E+02  3.633858740E+02  3.814697266E-06  0.00000E+00  9.000E+00
#rwgt            1           9   2.0323184918246079E-003          12     2285482           0
</event>
<event>
      6   9999  3.45752E-01  1.03731E+01 -1.00000E+00  1.85533E-01
      21    -1     0     0   502   512  0.000000000E+00  0.000000000E+00  1.032839186E+02  1.032839186E+02  0.000000000E+00  0.00000E+00  9.000E+00
      21    -1     0     0   501   502  0.000000000E+00  0.000000000E+00 -8.442640195E+02  8.442640195E+02  0.000000000E+00  0.00000E+00  9.000E+00
      25     1     1     2     0     0  2.504733344E+01  1.716266604E+01 -7.768657865E+02  7.874416605E+02  1.249879695E+02  0.00000E+00  9.000E+00
       5     1     1     2   501     0 -4.833771437E-01  4.465606050E-01 -7.300075323E+00  8.734224038E+00  4.750000000E+00  0.00000E+00  9.000E+00
      -5     1     1     2     0   503 -3.075749362E+01 -9.288092261E+00 -4.890038289E+01  5.870350942E+01  4.750000000E+00  0.00000E+00  9.000E+00
      21     1     1     2   503   512  6.193537320E+00 -8.321134387E+00  9.208614380E+01  9.266854408E+01  2.336015456E-06  0.00000E+00  9.000E+00
#rwgt            1           9   1.5760288005244258E-004          12     2286484           0
</event>
<event>
      6   9999  3.45752E-01  1.06435E+01 -1.00000E+00  1.84385E-01
      21    -1     0     0   501   502  0.000000000E+00  0.000000000E+00  1.739642901E+03  1.739642901E+03  0.000000000E+00  0.00000E+00  9.000E+00
      21    -1     0     0   511   503  0.000000000E+00  0.000000000E+00 -9.472357026E+01  9.472357026E+01  0.000000000E+00  0.00000E+00  9.000E+00
      25     1     1     2     0     0  1.284234565E+00  9.867112693E+00  4.642405188E+02  4.808791136E+02  1.250058136E+02  0.00000E+00  9.000E+00
       5     1     1     2   501     0  5.421047391E+00 -4.322329676E+00  1.220028248E+03  1.220057195E+03  4.750000000E+00  0.00000E+00  9.000E+00
      -5     1     1     2     0   503  3.929283882E+00 -5.981474577E+00  4.631615388E+01  4.710590112E+01  4.750000000E+00  0.00000E+00  9.000E+00
      21     1     1     2   511   502 -1.063456584E+01  4.366915604E-01 -8.566559042E+01  8.632426120E+01  5.135693366E-06  0.00000E+00  9.000E+00
#rwgt            1           9   6.1613896121204360E-002          12     2289106           0
</event>
<event>
      6   9999  3.45752E-01  4.59282E+01 -1.00000E+00  1.36792E-01
      21    -1     0     0   512   502  0.000000000E+00  0.000000000E+00  4.723406532E+01  4.723406532E+01  0.000000000E+00  0.00000E+00  9.000E+00
      21    -1     0     0   502   503  0.000000000E+00  0.000000000E+00 -8.881227966E+02  8.881227966E+02  0.000000000E+00  0.00000E+00  9.000E+00
      25     1     1     2     0     0  2.421427947E+01  1.677407867E+01 -6.363970632E+02  6.492257613E+02  1.250006646E+02  0.00000E+00  9.000E+00
       5     1     1     2   501     0 -2.989978062E+00 -1.285511893E+01 -3.439179733E+00  1.444245508E+01  4.750000000E+00  0.00000E+00  9.000E+00
      -5     1     1     2     0   503  2.006998384E+01 -2.402313028E+01 -2.198093713E+02  2.220779981E+02  4.750000000E+00  0.00000E+00  9.000E+00
      21     1     1     2   512   501 -4.129428525E+01  2.010417054E+01  1.875688297E+01  4.961064730E+01  2.236564522E-06  0.00000E+00  9.000E+00
#rwgt            1           9   4.9766700833264080E-005          12     2291695           0
</event>
<event>
      6   9999  3.45752E-01  2.14625E+01 -1.00000E+00  1.57906E-01
       2    -1     0     0   501     0  0.000000000E+00  0.000000000E+00  1.140869025E+03  1.140869025E+03  0.000000000E+00  0.00000E+00  9.000E+00
      21    -1     0     0   511   502  0.000000000E+00  0.000000000E+00 -8.121637916E+01  8.121637916E+01  0.000000000E+00  0.00000E+00  9.000E+00
      25     1     1     2     0     0 -1.406681106E+02  1.573132752E+02  1.870190942E+02  3.084398194E+02  1.249959867E+02  0.00000E+00  9.000E+00
       5     1     1     2   501     0  1.238446009E+02 -1.745836051E+02  7.460813220E+02  7.761938044E+02  4.750000000E+00  0.00000E+00  9.000E+00
      -5     1     1     2     0   502  1.018433361E+00  3.179064754E+01  7.774495042E+01  8.413395446E+01  4.750000000E+00  0.00000E+00  9.000E+00
       2     1     1     2   511     0  1.580507636E+01 -1.452031769E+01  4.880727945E+01  5.331782621E+01  6.743495762E-07  0.00000E+00  9.000E+00
#rwgt            1           4   45.530765003042312               12     2292395           0
</event>
<event>
      6   9999  3.45752E-01  1.37562E+01 -1.00000E+00  1.73695E-01
      21    -1     0     0   501   502  0.000000000E+00  0.000000000E+00  5.481206118E+01  5.481206118E+01  0.000000000E+00  0.00000E+00  9.000E+00
      21    -1     0     0   502   512  0.000000000E+00  0.000000000E+00 -1.407695676E+03  1.407695676E+03  0.000000000E+00  0.00000E+00  9.000E+00
      25     1     1     2     0     0  6.458174336E+00 -9.154110883E+00 -1.196591755E+03  1.203125839E+03  1.247174787E+02  0.00000E+00  9.000E+00
       5     1     1     2   501     0 -3.900336492E+00  5.548296535E+00  4.994359638E+01  5.062530532E+01  4.750000000E+00  0.00000E+00  9.000E+00
      -5     1     1     2     0   503 -5.180951867E-01 -9.998292214E+00 -1.632056002E+02  1.635813703E+02  4.750000000E+00  0.00000E+00  9.000E+00
      21     1     1     2   503   512 -2.039742657E+00  1.360410656E+01 -4.302985556E+01  4.517522258E+01  8.259061849E-07  0.00000E+00  9.000E+00
#rwgt            1           9   6.4379036079552772E-005          12     2293064           0
</event>
<event>
      6   9999 -3.45752E-01  1.61691E+01 -1.00000E+00  1.67594E-01
      21    -1     0     0   501   511  0.000000000E+00  0.000000000E+00  1.419068387E+01  1.419068387E+01  0.000000000E+00  0.00000E+00  9.000E+00
      21    -1     0     0   502   503  0.000000000E+00  0.000000000E+00 -9.435075876E+02  9.435075876E+02  0.000000000E+00  0.00000E+00  9.000E+00
      25     1     1     2     0     0  9.569419708E-01 -7.663432078E+00 -8.522634844E+02  8.614068401E+02  1.249361972E+02  0.00000E+00  9.000E+00
       5     1     1     2   501     0  4.053096293E+00 -4.856741301E+00  6.066935863E+00  9.969239510E+00  4.750000000E+00  0.00000E+00  9.000E+00
      -5     1     1     2     0   503  5.022443153E+00 -1.601503641E-01 -1.990911299E+01  2.107571739E+01  4.750000000E+00  0.00000E+00  9.000E+00
      21     1     1     2   502   511 -1.003248142E+01  1.268032374E+01 -6.321124214E+01  6.524647444E+01  1.348699152E-06  0.00000E+00  9.000E+00
#rwgt            1           9  -1.1779227163977413               12     2296518           0
</event>
<event>
      6   9999  3.45752E-01  3.27888E+01 -1.00000E+00  1.45383E-01
      21    -1     0     0   512   502  0.000000000E+00  0.000000000E+00  1.678614016E+02  1.678614016E+02  0.000000000E+00  0.00000E+00  9.000E+00
      21    -1     0     0   502   503  0.000000000E+00  0.000000000E+00 -1.025444320E+03  1.025444320E+03  0.000000000E+00  0.00000E+00  9.000E+00
      25     1     1     2     0     0  1.780751425E+01  2.152158723E+01 -7.740077935E+02  7.845340456E+02  1.250012722E+02  0.00000E+00  9.000E+00
       5     1     1     2   501     0  2.170866163E+00  3.992561893E+00 -1.872384091E+00  6.835315102E+00  4.750000000E+00  0.00000E+00  9.000E+00
      -5     1     1     2     0   503  2.325342487E+00 -1.479783226E+00 -2.401091953E+02  2.401719907E+02  4.750000000E+00  0.00000E+00  9.000E+00
      21     1     1     2   512   501 -2.230372290E+01 -2.403436589E+01  1.584064542E+02  1.617643704E+02  4.672030912E-06  0.00000E+00  9.000E+00
#rwgt            1           9   1.1240754011972399E-004          12     2298182           0
</event>
<event>
      6   9999  3.45752E-01  2.46783E+00 -1.00000E+00  3.01153E-01
      21    -1     0     0   511   502  0.000000000E+00  0.000000000E+00  1.140585789E+01  1.140585789E+01  0.000000000E+00  0.00000E+00  9.000E+00
      21    -1     0     0   502   503  0.000000000E+00  0.000000000E+00 -6.165662368E+02  6.165662368E+02  0.000000000E+00  0.00000E+00  9.000E+00
      25     1     1     2     0     0 -1.230172271E+00 -1.315556577E+00 -5.498287875E+02  5.638616742E+02  1.250001924E+02  0.00000E+00  9.000E+00
       5     1     1     2   501     0  4.089363569E-01  1.063382934E-01 -4.704145431E+00  6.698508865E+00  4.750000000E+00  0.00000E+00  9.000E+00
      -5     1     1     2     0   503  2.056150169E+00 -9.274113079E-01 -5.342401125E+01  5.368216951E+01  4.750000000E+00  0.00000E+00  9.000E+00
      21     1     1     2   511   501 -1.234914256E+00  2.136629592E+00  2.796565222E+00  3.729742119E+00  1.264405455E-07  0.00000E+00  9.000E+00
#rwgt            1           9   6.4954096103090487E-003          12     2299021           0
</event>
<event>
      6   9999  3.45752E-01  7.01461E+01 -1.00000E+00  1.27364E-01
      -2    -1     0     0     0   502  0.000000000E+00  0.000000000E+00  2.609461892E+01  2.609461892E+01  0.000000000E+00  0.00000E+00  9.000E+00
       2    -1     0     0   512     0  0.000000000E+00  0.000000000E+00 -1.288862897E+03  1.288862897E+03  0.000000000E+00  0.00000E+00  9.000E+00
      25     1     1     2     0     0  1.595640428E+02 -9.491330310E-01 -6.784055663E+02  7.080403855E+02  1.250019623E+02  0.00000E+00  9.000E+00
       5     1     1     2   501     0 -6.001758492E+01 -1.670223166E+00 -2.052577601E+02  2.139116891E+02  4.750000000E+00  0.00000E+00  9.000E+00
      -5     1     1     2     0   502 -3.090996077E+01 -1.185492097E+01 -1.247354664E+02  1.291412556E+02  4.750000000E+00  0.00000E+00  9.000E+00
      21     1     1     2   512   501 -6.863649712E+01  1.447427717E+01 -2.543694853E+02  2.638641857E+02  2.697398305E-06  0.00000E+00  9.000E+00
#rwgt            1           3   1.3983092903765707E-004          12     2305312           0
</event>
<event>
      6   9999 -3.45752E-01  3.98691E+00 -1.00000E+00  2.48145E-01
      21    -1     0     0   501   502  0.000000000E+00  0.000000000E+00  4.075018278E+01  4.075018278E+01  0.000000000E+00  0.00000E+00  9.000E+00
       2    -1     0     0   502     0  0.000000000E+00  0.000000000E+00 -1.204646344E+03  1.204646344E+03  0.000000000E+00  0.00000E+00  9.000E+00
      25     1     1     2     0     0 -1.730410606E+01  6.380599922E+00 -4.637082722E+02  4.806147662E+02  1.250001907E+02  0.00000E+00  9.000E+00
       5     1     1     2   501     0  5.081347751E+00 -5.325528907E-01  2.897502073E+01  2.980298700E+01  4.750000000E+00  0.00000E+00  9.000E+00
      -5     1     1     2     0   503  1.312006203E+01 -1.963419375E+00 -1.420031167E+01  2.000505923E+01  4.750000000E+00  0.00000E+00  9.000E+00
       2     1     1     2   503     0 -8.973037165E-01 -3.884627656E+00 -7.149625985E+02  7.149737147E+02  7.629394531E-06  0.00000E+00  9.000E+00
#rwgt            1           9  -9.4089113238374406E-004          12     2306864           0
</event>
<event>
      6   9999  3.45752E-01  2.76784E+01 -1.00000E+00  1.50137E-01
      21    -1     0     0   501   502  0.000000000E+00  0.000000000E+00  2.369591104E+01  2.369591104E+01  0.000000000E+00  0.00000E+00  9.000E+00
       2    -1     0     0   502     0  0.000000000E+00  0.000000000E+00 -2.258462188E+03  2.258462188E+03  0.000000000E+00  0.00000E+00  9.000E+00
      25     1     1     2     0     0 -3.473953931E+01 -2.241198565E+01 -5.273986345E+02  5.435840686E+02  1.250007493E+02  0.00000E+00  9.000E+00
       5     1     1     2   501     0 -2.488844646E+00  4.791228902E+00  1.346115106E+01  1.526156316E+01  4.750000000E+00  0.00000E+00  9.000E+00
      -5     1     1     2     0   503  2.235174480E+01  4.096121733E+01 -5.062099841E+02  5.083783358E+02  4.750000000E+00  0.00000E+00  9.000E+00
       2     1     1     2   503     0  1.487663916E+01 -2.334046058E+01 -1.214618810E+03  1.214934132E+03  1.525878906E-05  0.00000E+00  9.000E+00
#rwgt            1           9  0.11445159516263062               12     2312723           0
</event>
<event>
      6   9999  3.45752E-01  1.01291E+01 -1.00000E+00  1.86609E-01
      21    -1     0     0   501   511  0.000000000E+00  0.000000000E+00  3.024714275E+01  3.024714275E+01  0.000000000E+00  0.00000E+00  9.000E+00
      21    -1     0     0   502   503  0.000000000E+00  0.000000000E+00 -1.106839556E+03  1.106839556E+03  0.000000000E+00  0.00000E+00  9.000E+00
      25     1     1     2     0     0  6.255246731E+01 -3.549582608E+01 -9.241746443E+02  9.353582947E+02  1.249944062E+02  0.00000E+00  9.000E+00
       5     1     1     2   501     0 -7.774414404E-02 -3.572740877E-01  1.692523262E+01  1.758293742E+01  4.750000000E+00  0.00000E+00  9.000E+00
      -5     1     1     2     0   503 -5.363940792E+01  3.089982637E+01 -1.416663770E+02  1.546735602E+02  4.750000000E+00  0.00000E+00  9.000E+00
      21     1     1     2   502   511 -8.835315246E+00  4.953273794E+00 -2.767662446E+01  2.947190626E+01  3.371747881E-07  0.00000E+00  9.000E+00
#rwgt            1           9   3.6542644956367334E-003          12     2314509           0
</event>
<event>
      6   9999  3.45752E-01  3.29856E+00 -1.00000E+00  2.66561E-01
      21    -1     0     0   501   512  0.000000000E+00  0.000000000E+00  6.958429202E+00  6.958429202E+00  0.000000000E+00  0.00000E+00  9.000E+00
      21    -1     0     0   502   503  0.000000000E+00  0.000000000E+00 -1.285723815E+03  1.285723815E+03  0.000000000E+00  0.00000E+00  9.000E+00
      25     1     1     2     0     0 -6.226818275E+00  1.869708010E+00 -1.194139308E+03  1.200681251E+03  1.249980374E+02  0.00000E+00  9.000E+00
       5     1     1     2   501     0  3.341507965E-01 -7.002948243E-01 -6.464620274E+00  8.059521381E+00  4.750000000E+00  0.00000E+00  9.000E+00
      -5     1     1     2     0   503  9.125328913E+00 -1.825435836E+00 -7.964303633E+01  8.032546034E+01  4.750000000E+00  0.00000E+00  9.000E+00
      21     1     1     2   502   512 -3.232661434E+00  6.560226504E-01  1.481578913E+00  3.616011856E+00  2.589545726E-07  0.00000E+00  9.000E+00
#rwgt            1           9   4.8975756505167799E-002          12     2317809           0
</event>
<event>
      6   9999  3.45752E-01  1.79954E+01 -1.00000E+00  1.63792E-01
      21    -1     0     0   501   502  0.000000000E+00  0.000000000E+00  1.555710618E+01  1.555710618E+01  0.000000000E+00  0.00000E+00  9.000E+00
      21    -1     0     0   502   511  0.000000000E+00  0.000000000E+00 -7.528923851E+02  7.528923851E+02  0.000000000E+00  0.00000E+00  9.000E+00
      25     1     1     2     0     0  1.368406923E+01 -6.590795267E+00 -4.559924777E+02  4.730534879E+02  1.249790797E+02  0.00000E+00  9.000E+00
       5     1     1     2   501     0  4.645279659E+00 -3.105189015E+00  4.412614464E+00  8.558883592E+00  4.750000000E+00  0.00000E+00  9.000E+00
      -5     1     1     2     0   503 -1.850562759E+00  2.465096489E+00 -3.690437221E+01  3.733626216E+01  4.750000000E+00  0.00000E+00  9.000E+00
      21     1     1     2   503   511 -1.647878613E+01  7.230887794E+00 -2.488510435E+02  2.495008577E+02  3.814697266E-06  0.00000E+00  9.000E+00
#rwgt            1           9  0.48150730203817621               12     2322318           0
</event>
<event>
      6   9999  3.45752E-01  4.34990E+00 -1.00000E+00  2.40546E-01
      21    -1     0     0   501   502  0.000000000E+00  0.000000000E+00  1.364470644E+01  1.364470644E+01  0.000000000E+00  0.00000E+00  9.000E+00
      21    -1     0     0   512   503  0.000000000E+00  0.000000000E+00 -1.023770849E+03  1.023770849E+03  0.000000000E+00  0.00000E+00  9.000E+00
      25     1     1     2     0     0  7.099056729E+00 -1.114004453E+01 -9.362193687E+02  9.446194207E+02  1.249985861E+02  0.00000E+00  9.000E+00
       5     1     1     2   501     0  2.108244856E+00  1.375989154E+00  7.965918846E+00  9.610224013E+00  4.750000000E+00  0.00000E+00  9.000E+00
      -5     1     1     2     0   503 -6.900710469E+00  6.076064183E+00 -5.542872432E+01  5.638656170E+01  4.750000000E+00  0.00000E+00  9.000E+00
      21     1     1     2   512   502 -2.306591115E+00  3.687991192E+00 -2.644396821E+01  2.679934881E+01  3.371747881E-07  0.00000E+00  9.000E+00
#rwgt            1           9   6.7849058650615987E-005          12     2323863           0
</event>
<event>
      6   9999  3.45752E-01  1.61234E+01 -1.00000E+00  1.67697E-01
      21    -1     0     0   511   502  0.000000000E+00  0.000000000E+00  2.296531307E+01  2.296531307E+01  0.000000000E+00  0.00000E+00  9.000E+00
      21    -1     0     0   502   503  0.000000000E+00  0.000000000E+00 -3.095658982E+03  3.095658982E+03  0.000000000E+00  0.00000E+00  9.000E+00
      25     1     1     2     0     0  7.252210769E+01 -1.984203383E+01 -2.203976433E+03  2.208798308E+03  1.249987466E+02  0.00000E+00  9.000E+00
       5     1     1     2   501     0  1.072691643E+01 -2.849655018E+00  1.815073201E+00  1.220836847E+01  4.750000000E+00  0.00000E+00  9.000E+00
      -5     1     1     2     0   503 -6.885677029E+01  1.542354349E+01 -8.772895111E+02  8.801355516E+02  4.750000000E+00  0.00000E+00  9.000E+00
      21     1     1     2   511   501 -1.439225384E+01  7.268145358E+00  6.757201390E+00  1.748206733E+01  2.384185791E-06  0.00000E+00  9.000E+00
#rwgt            1           9   3.7066087384590106E-003          12     2329041           0
</event>
<event>
      6   9999  3.45752E-01  7.57189E+00 -1.00000E+00  2.00886E-01
      21    -1     0     0   502   512  0.000000000E+00  0.000000000E+00  1.793821079E+01  1.793821079E+01  0.000000000E+00  0.00000E+00  9.000E+00
      21    -1     0     0   501   502  0.000000000E+00  0.000000000E+00 -9.724948228E+02  9.724948228E+02  0.000000000E+00  0.00000E+00  9.000E+00
      25     1     1     2     0     0  6.253554173E+01  1.957571215E+01 -3.210212326E+02  3.506734727E+02  1.249934008E+02  0.00000E+00  9.000E+00
       5     1     1     2   501     0 -5.975852083E+01 -2.573540098E+01 -5.942011761E+02  5.977716887E+02  4.750000000E+00  0.00000E+00  9.000E+00
      -5     1     1     2     0   503  2.931172983E+00  1.184751056E+00 -2.631834709E+01  2.692978469E+01  4.750000000E+00  0.00000E+00  9.000E+00
      21     1     1     2   503   512 -5.708193880E+00  4.974937769E+00 -1.301585624E+01  1.505808743E+01  0.000000000E+00  0.00000E+00  9.000E+00
#rwgt            1           9  0.10626798542617037               12     2331384           0
</event>
<event>
      6   9999 -3.45752E-01  7.76622E+00 -1.00000E+00  1.99553E-01
      21    -1     0     0   501   502  0.000000000E+00  0.000000000E+00  1.928652092E+01  1.928652092E+01  0.000000000E+00  0.00000E+00  9.000E+00
      21    -1     0     0   502   511  0.000000000E+00  0.000000000E+00 -4.256821298E+03  4.256821298E+03  0.000000000E+00  0.00000E+00  9.000E+00
      25     1     1     2     0     0 -1.529948189E+02 -5.454268518E+01 -2.438509579E+03  2.447107705E+03  1.249993378E+02  0.00000E+00  9.000E+00
       5     1     1     2   501     0  5.603031526E+00 -4.661298450E+00  9.150984251E+00  1.262634857E+01  4.750000000E+00  0.00000E+00  9.000E+00
      -5     1     1     2     0   503  1.504757813E+02  6.633161575E+01 -1.738095538E+03  1.745864115E+03  4.750000000E+00  0.00000E+00  9.000E+00
      21     1     1     2   503   511 -3.083993907E+00 -7.127632115E+00 -7.008064445E+01  7.050965100E+01  0.000000000E+00  0.00000E+00  9.000E+00
#rwgt            1           9  -1.5620541503096641E-004          12     2334716           0
</event>
<event>
      6   9999  3.45752E-01  2.11918E+01 -1.00000E+00  1.58315E-01
      21    -1     0     0   501   502  0.000000000E+00  0.000000000E+00  1.965221618E+01  1.965221618E+01  0.000000000E+00  0.00000E+00  9.000E+00
      21    -1     0     0   512   503  0.000000000E+00  0.000000000E+00 -1.292139894E+03  1.292139894E+03  0.000000000E+00  0.00000E+00  9.000E+00
      25     1     1     2     0     0  2.944121147E+01  2.946712442E+01 -9.182300258E+02  9.276349430E+02  1.250004432E+02  0.00000E+00  9.000E+00
       5     1     1     2   501     0  2.940146084E+00 -7.890435472E-01  1.098849271E+01  1.235218688E+01  4.750000000E+00  0.00000E+00  9.000E+00
      -5     1     1     2     0   503 -1.255316013E+01 -2.119898326E+01 -5.092803186E+01  5.677328288E+01  4.750000000E+00  0.00000E+00  9.000E+00
      21     1     1     2   512   502 -1.982819742E+01 -7.479097613E+00 -3.143181125E+02  3.150316971E+02  5.394796609E-06  0.00000E+00  9.000E+00
#rwgt            1           9   3.0987686004052968E-005          12     2339770           0
</event>
<event>
      6   9999  3.45752E-01  7.70000E+00 -1.00000E+00  2.00001E-01
      21    -1     0     0   501   502  0.000000000E+00  0.000000000E+00  1.312801511E+01  1.312801511E+01  0.000000000E+00  0.00000E+00  9.000E+00
      21    -1     0     0   502   511  0.000000000E+00  0.000000000E+00 -8.621406448E+02  8.621406448E+02  0.000000000E+00  0.00000E+00  9.000E+00
      25     1     1     2     0     0 -4.710557966E+01 -1.707735268E+01 -6.992738554E+02  7.121231465E+02  1.249995173E+02  0.00000E+00  9.000E+00
       5     1     1     2   501     0  4.019990301E+01  3.694929221E+00 -9.481276209E+01  1.031586500E+02  4.750000000E+00  0.00000E+00  9.000E+00
      -5     1     1     2     0   503  4.116753548E+00  6.205246916E+00 -6.535674829E+00  1.098773382E+01  4.750000000E+00  0.00000E+00  9.000E+00
      21     1     1     2   503   511  2.788923096E+00  7.177176541E+00 -4.839033736E+01  4.899912963E+01  0.000000000E+00  0.00000E+00  9.000E+00
#rwgt            1           9   7.3415758189753464E-004          12     2341467           0
</event>
<event>
      6   9999  3.45752E-01  5.05949E+01 -1.00000E+00  1.34513E-01
      21    -1     0     0   501   512  0.000000000E+00  0.000000000E+00  1.920246630E+02  1.920246630E+02  0.000000000E+00  0.00000E+00  9.000E+00
      21    -1     0     0   502   503  0.000000000E+00  0.000000000E+00 -9.010458080E+02  9.010458080E+02  0.000000000E+00  0.00000E+00  9.000E+00
      25     1     1     2     0     0  2.329812865E+01 -2.925696834E+01 -8.205275376E+02  8.308369747E+02  1.250034622E+02  0.00000E+00  9.000E+00
       5     1     1     2   501     0  5.420610611E+00  7.268302562E+00 -1.328462231E-01  1.023676656E+01  4.750000000E+00  0.00000E+00  9.000E+00
      -5     1     1     2     0   503 -1.747471602E+01 -2.734097610E+01 -6.254073296E+01  7.061728154E+01  4.750000000E+00  0.00000E+00  9.000E+00
      21     1     1     2   502   512 -1.124402324E+01  4.932964188E+01  1.741799719E+02  1.813794482E+02  0.000000000E+00  0.00000E+00  9.000E+00
#rwgt            1           9  0.10650203193124129               12     2345690           0
</event>
<event>
      6   9999  3.45752E-01  7.40579E+00 -1.00000E+00  2.02068E-01
      21    -1     0     0   501   511  0.000000000E+00  0.000000000E+00  1.944483887E+01  1.944483887E+01  0.000000000E+00  0.00000E+00  9.000E+00
      21    -1     0     0   502   503  0.000000000E+00  0.000000000E+00 -8.811960614E+02  8.811960614E+02  0.000000000E+00  0.00000E+00  9.000E+00
      25     1     1     2     0     0  3.593095071E+00  2.459729222E+01 -6.625450652E+02  6.746914604E+02  1.249986645E+02  0.00000E+00  9.000E+00
       5     1     1     2   501     0  2.216794545E+00 -1.719525118E-01  7.428480718E+00  9.093325657E+00  4.750000000E+00  0.00000E+00  9.000E+00
      -5     1     1     2     0   503 -7.514371183E+00 -3.163231072E+01 -2.068536951E+02  2.094470876E+02  4.750000000E+00  0.00000E+00  9.000E+00
      21     1     1     2   502   511  1.704481567E+00  7.206971014E+00  2.190570852E-01  7.409026563E+00  2.953805206E-07  0.00000E+00  9.000E+00
#rwgt            1           9   4.4694604654626100E-003          12     2346337           0
</event>
<event>
      6   9999  3.45752E-01  5.68217E+01 -1.00000E+00  1.31881E-01
      21    -1     0     0   501   502  0.000000000E+00  0.000000000E+00  1.792239151E+01  1.792239151E+01  0.000000000E+00  0.00000E+00  9.000E+00
      21    -1     0     0   512   503  0.000000000E+00  0.000000000E+00 -2.557607480E+03  2.557607480E+03  0.000000000E+00  0.00000E+00  9.000E+00
      25     1     1     2     0     0 -2.022083035E+01  1.413622122E+02 -8.017590233E+02  8.239140198E+02  1.249984938E+02  0.00000E+00  9.000E+00
       5     1     1     2   501     0  2.705006993E-01  4.214350714E+00  6.827392725E-01  6.392382614E+00  4.750000000E+00  0.00000E+00  9.000E+00
      -5     1     1     2     0   503  2.997739593E+01 -8.964658550E+01 -1.029152615E+03  1.033495439E+03  4.750000000E+00  0.00000E+00  9.000E+00
      21     1     1     2   512   502 -1.002706628E+01 -5.592997741E+01 -7.094561892E+02  7.117280301E+02  7.629394531E-06  0.00000E+00  9.000E+00
#rwgt            1           9   6.9070396929743457E-003          12     2349768           0
</event>
<event>
      6   9999  3.45752E-01  1.14917E+01 -1.00000E+00  1.81050E-01
      21    -1     0     0   501   502  0.000000000E+00  0.000000000E+00  1.598747237E+01  1.598747237E+01  0.000000000E+00  0.00000E+00  9.000E+00
      21    -1     0     0   502   511  0.000000000E+00  0.000000000E+00 -9.141871444E+02  9.141871444E+02  0.000000000E+00  0.00000E+00  9.000E+00
      25     1     1     2     0     0  7.617527446E+00 -3.165101846E+00 -5.915278022E+02  6.046481582E+02  1.250048393E+02  0.00000E+00  9.000E+00
       5     1     1     2   501     0  3.180411337E-01  1.391355644E-01  6.013133570E+00  7.670774680E+00  4.750000000E+00  0.00000E+00  9.000E+00
      -5     1     1     2     0   503 -2.569203808E+00  1.318776000E+01 -1.805370679E+01  2.300036198E+01  4.750000000E+00  0.00000E+00  9.000E+00
      21     1     1     2   503   511 -5.366364772E+00 -1.016179372E+01 -2.946312967E+02  2.948553220E+02  3.814697266E-06  0.00000E+00  9.000E+00
#rwgt            1           9   1.3307121526602990E-002          12     2351764           0
</event>
<event>
      6   9999  3.45752E-01  1.09938E+01 -1.00000E+00  1.82961E-01
      21    -1     0     0   501   502  0.000000000E+00  0.000000000E+00  1.636755033E+01  1.636755033E+01  0.000000000E+00  0.00000E+00  9.000E+00
      21    -1     0     0   502   512  0.000000000E+00  0.000000000E+00 -1.027888670E+03  1.027888670E+03  0.000000000E+00  0.00000E+00  9.000E+00
      25     1     1     2     0     0  2.255782515E+01  4.029152928E+01 -6.777894518E+02  6.907644053E+02  1.249986395E+02  0.00000E+00  9.000E+00
       5     1     1     2   501     0  1.719969689E+00 -1.242345270E+00  7.395532535E+00  9.042019630E+00  4.750000000E+00  0.00000E+00  9.000E+00
      -5     1     1     2     0   503 -1.595529149E+01 -3.186583746E+01 -2.318464648E+02  2.346174517E+02  4.750000000E+00  0.00000E+00  9.000E+00
      21     1     1     2   503   512 -8.322503348E+00 -7.183346546E+00 -1.092807352E+02  1.098323432E+02  1.907348633E-06  0.00000E+00  9.000E+00
#rwgt            1           9   5.5845387993610585E-004          12     2353751           0
</event>
<event>
      6   9999  3.45752E-01  2.90682E+01 -1.00000E+00  1.48730E-01
       2    -1     0     0   502     0  0.000000000E+00  0.000000000E+00  3.664758371E+02  3.664758371E+02  0.000000000E+00  0.00000E+00  9.000E+00
      21    -1     0     0   501   502  0.000000000E+00  0.000000000E+00 -1.244210913E+03  1.244210913E+03  0.000000000E+00  0.00000E+00  9.000E+00
      25     1     1     2     0     0 -4.708537186E+00  1.084635187E+02 -1.267135978E+02  2.084867317E+02  1.249955048E+02  0.00000E+00  9.000E+00
       5     1     1     2   501     0 -1.140677940E+01 -9.453626012E+01 -1.056166643E+03  1.060461107E+03  4.750000000E+00  0.00000E+00  9.000E+00
      -5     1     1     2     0   503 -6.630931780E+00  4.171627177E+00 -1.645190914E+01  1.883081368E+01  4.750000000E+00  0.00000E+00  9.000E+00
       2     1     1     2   503     0  2.274624837E+01 -1.809888575E+01  3.215970741E+02  3.229080977E+02  5.394796609E-06  0.00000E+00  9.000E+00
#rwgt            1           9  0.74141099678105005               12     2356232           0
</event>
<event>
      6   9999  3.45752E-01  5.31101E+00 -1.00000E+00  2.21713E-01
      21    -1     0     0   502   503  0.000000000E+00  0.000000000E+00  5.951132741E+01  5.951132741E+01  0.000000000E+00  0.00000E+00  9.000E+00
      21    -1     0     0   511   502  0.000000000E+00  0.000000000E+00 -2.417198957E+02  2.417198957E+02  0.000000000E+00  0.00000E+00  9.000E+00
      25     1     1     2     0     0 -2.886020151E+01 -2.135269589E+01 -1.658644919E+02  2.107768635E+02  1.250080304E+02  0.00000E+00  9.000E+00
       5     1     1     2   501     0  1.133287888E+00  2.495677425E-01  9.543583060E+00  1.072329721E+01  4.750000000E+00  0.00000E+00  9.000E+00
      -5     1     1     2     0   503  2.812141340E+01  2.639946273E+01  1.261882837E+01  4.086003981E+01  4.750000000E+00  0.00000E+00  9.000E+00
      21     1     1     2   511   501 -3.944997765E-01 -5.296334580E+00 -3.850648779E+01  3.887102252E+01  4.768371582E-07  0.00000E+00  9.000E+00
#rwgt            1           9   3.2367450774420593E-003          12     2357962           0
</event>
<event>
      6   9999  3.45752E-01  1.84565E+01 -1.00000E+00  1.62919E-01
      21    -1     0     0   502   512  0.000000000E+00  0.000000000E+00  2.174699914E+01  2.174699914E+01  0.000000000E+00  0.00000E+00  9.000E+00
      21    -1     0     0   501   502  0.000000000E+00  0.000000000E+00 -1.621328460E+03  1.621328460E+03  0.000000000E+00  0.00000E+00  9.000E+00
      25     1     1     2     0     0 -6.963775958E+01  1.086247643E+02 -7.157889680E+02  7.379894031E+02  1.250030217E+02  0.00000E+00  9.000E+00
       5     1     1     2   501     0 -3.174311589E+01 -7.719257529E+00 -1.899235042E+02  1.927711397E+02  4.750000000E+00  0.00000E+00  9.000E+00
      -5     1     1     2     0   503  8.344728712E+01 -9.654321068E+01 -6.704228660E+02  6.824759505E+02  4.750000000E+00  0.00000E+00  9.000E+00
      21     1     1     2   503   512  1.793358835E+01 -4.362296069E+00 -2.344612293E+01  2.983896611E+01  3.371747881E-07  0.00000E+00  9.000E+00
#rwgt            1           9   1.1717315187671879E-003          12     2362343           0
</event>
<event>
      6   9999  3.45752E-01  1.02613E+01 -1.00000E+00  1.86022E-01
      21    -1     0     0   501   511  0.000000000E+00  0.000000000E+00  2.292353750E+02  2.292353750E+02  0.000000000E+00  0.00000E+00  9.000E+00
      21    -1     0     0   502   503  0.000000000E+00  0.000000000E+00 -1.672755947E+02  1.672755947E+02  0.000000000E+00  0.00000E+00  9.000E+00
      25     1     1     2     0     0 -1.814519212E+01  2.581465198E+01 -6.366046163E+01  1.437803682E+02  1.249979826E+02  0.00000E+00  9.000E+00
       5     1     1     2   501     0 -5.139961433E+00 -3.339205139E-01  4.874504906E-01  7.023589853E+00  4.750000000E+00  0.00000E+00  9.000E+00
      -5     1     1     2     0   503  1.303881834E+01 -2.492760560E+01 -5.675904634E+01  6.352596434E+01  4.750000000E+00  0.00000E+00  9.000E+00
      21     1     1     2   502   511  1.024633521E+01 -5.531258706E-01  1.818918378E+02  1.821810473E+02  0.000000000E+00  0.00000E+00  9.000E+00
#rwgt            1           9  0.61282077533994606               12     2364910           0
</event>
<event>
      6   9999  3.45752E-01  7.08490E+00 -1.00000E+00  2.04474E-01
      21    -1     0     0   501   502  0.000000000E+00  0.000000000E+00  3.198940252E+01  3.198940252E+01  0.000000000E+00  0.00000E+00  9.000E+00
      21    -1     0     0   502   512  0.000000000E+00  0.000000000E+00 -1.635542227E+03  1.635542227E+03  0.000000000E+00  0.00000E+00  9.000E+00
      25     1     1     2     0     0  3.575384641E+01  1.405359484E+01 -1.178731230E+03  1.185962963E+03  1.249999896E+02  0.00000E+00  9.000E+00
       5     1     1     2   501     0 -4.465938016E+00  4.125812995E+00  2.597686832E+01  2.709847086E+01  4.750000000E+00  0.00000E+00  9.000E+00
      -5     1     1     2     0   503 -2.500684352E+01 -2.145721320E+01 -1.526729321E+02  1.562604905E+02  4.750000000E+00  0.00000E+00  9.000E+00
      21     1     1     2   503   512 -6.281064874E+00  3.277805369E+00 -2.981255315E+02  2.982097053E+02  3.814697266E-06  0.00000E+00  9.000E+00
#rwgt            1           9   1.2312938584141487E-004          12     2367323           0
</event>
<event>
      6   9999  3.45752E-01  4.03828E+00 -1.00000E+00  2.46997E-01
      21    -1     0     0   501   502  0.000000000E+00  0.000000000E+00  2.741451089E+01  2.741451089E+01  0.000000000E+00  0.00000E+00  9.000E+00
      21    -1     0     0   502   511  0.000000000E+00  0.000000000E+00 -1.126741458E+03  1.126741458E+03  0.000000000E+00  0.00000E+00  9.000E+00
      25     1     1     2     0     0  2.841913183E+01 -2.013576190E+01 -3.926274055E+02  4.135175267E+02  1.250094772E+02  0.00000E+00  9.000E+00
       5     1     1     2   501     0  8.668986752E-01  4.364593303E+00  1.592821585E+01  1.720673555E+01  4.750000000E+00  0.00000E+00  9.000E+00
      -5     1     1     2     0   503 -2.677688983E+01  1.260700669E+01 -6.518677542E+02  6.525565645E+02  4.750000000E+00  0.00000E+00  9.000E+00
      21     1     1     2   503   511 -2.509140681E+00  3.164161907E+00 -7.076000371E+01  7.087514256E+01  1.348699152E-06  0.00000E+00  9.000E+00
#rwgt            1           9   8.0475288186351510E-003          12     2371595           0
</event>
<event>
      6   9999  3.45752E-01  6.90346E+01 -1.00000E+00  1.27695E-01
      21    -1     0     0   512   502  0.000000000E+00  0.000000000E+00  7.839475440E+01  7.839475440E+01  0.000000000E+00  0.00000E+00  9.000E+00
      21    -1     0     0   502   503  0.000000000E+00  0.000000000E+00 -5.409822780E+02  5.409822780E+02  0.000000000E+00  0.00000E+00  9.000E+00
      25     1     1     2     0     0 -7.036804187E+01  2.982491525E+00 -2.967781897E+02  3.296400355E+02  1.249988101E+02  0.00000E+00  9.000E+00
       5     1     1     2   501     0  1.095830007E+01  7.382276822E+00  2.286656591E+01  2.683327576E+01  4.750000000E+00  0.00000E+00  9.000E+00
      -5     1     1     2     0   503  1.053855214E+02  4.113284666E+01 -1.290777732E+02  1.717022225E+02  4.750000000E+00  0.00000E+00  9.000E+00
      21     1     1     2   512   501 -4.597577955E+01 -5.149761501E+01 -5.959812654E+01  9.120149858E+01  1.651812370E-06  0.00000E+00  9.000E+00
#rwgt            1           9   5.7500044486941593E-004          12     2377943           0
</event>
<event>
      6   9999 -3.45752E-01  1.07540E+01 -1.00000E+00  1.83928E-01
      21    -1     0     0   501   502  0.000000000E+00  0.000000000E+00  2.506695494E+01  2.506695494E+01  0.000000000E+00  0.00000E+00  9.000E+00
      21    -1     0     0   502   511  0.000000000E+00  0.000000000E+00 -1.273060461E+03  1.273060461E+03  0.000000000E+00  0.00000E+00  9.000E+00
      25     1     1     2     0     0 -5.333839474E+01  1.414812000E+01 -1.862671877E+02  2.310202378E+02  1.250189242E+02  0.00000E+00  9.000E+00
       5     1     1     2   501     0  2.689570745E-01 -5.186816907E-01 -2.193378954E+00  5.264482865E+00  4.750000000E+00  0.00000E+00  9.000E+00
      -5     1     1     2     0   503  5.341274156E+01 -2.437796466E+01 -8.544603636E+02  8.564883429E+02  4.750000000E+00  0.00000E+00  9.000E+00
      21     1     1     2   503   511 -3.433038965E-01  1.074852635E+01 -2.050725757E+02  2.053543523E+02  3.814697266E-06  0.00000E+00  9.000E+00
#rwgt            1           9  -2.6540650298646488E-002          12     2378889           0
</event>
<event>
      6   9999  3.45752E-01  1.39917E+01 -1.00000E+00  1.73033E-01
      21    -1     0     0   501   502  0.000000000E+00  0.000000000E+00  1.612581067E+01  1.612581067E+01  0.000000000E+00  0.00000E+00  9.000E+00
      21    -1     0     0   502   512  0.000000000E+00  0.000000000E+00 -1.636146821E+03  1.636146821E+03  0.000000000E+00  0.00000E+00  9.000E+00
      25     1     1     2     0     0 -1.789250720E+00  4.211468960E+01 -7.093464049E+02  7.215079954E+02  1.249984675E+02  0.00000E+00  9.000E+00
       5     1     1     2   501     0  6.483989549E-01 -1.016846032E+00  5.777589107E+00  7.576109354E+00  4.750000000E+00  0.00000E+00  9.000E+00
      -5     1     1     2     0   503  1.505850152E+01 -3.965998944E+01 -1.345095159E+02  1.411206774E+02  4.750000000E+00  0.00000E+00  9.000E+00
      21     1     1     2   503   512 -1.391764975E+01 -1.437854124E+00 -7.819426788E+02  7.820678496E+02  1.078959322E-05  0.00000E+00  9.000E+00
#rwgt            1           9   3.9235392359501459E-003          12     2382583           0
</event>
<event>
      6   9999  3.45752E-01  4.50735E+00 -1.00000E+00  2.37583E-01
      21    -1     0     0   501   502  0.000000000E+00  0.000000000E+00  3.490915520E+01  3.490915520E+01  0.000000000E+00  0.00000E+00  9.000E+00
      21    -1     0     0   511   503  0.000000000E+00  0.000000000E+00 -2.291321887E+02  2.291321887E+02  0.000000000E+00  0.00000E+00  9.000E+00
      25     1     1     2     0     0  7.290777545E+00  2.289240461E+01 -1.580378378E+02  2.029244356E+02  1.250006030E+02  0.00000E+00  9.000E+00
       5     1     1     2   501     0 -1.510240570E-01  2.990066058E-02  4.026799662E+00  6.229070383E+00  4.750000000E+00  0.00000E+00  9.000E+00
      -5     1     1     2     0   503 -1.164706989E+01 -2.290553634E+01 -1.684647868E+01  3.109154509E+01  4.750000000E+00  0.00000E+00  9.000E+00
      21     1     1     2   511   502  4.507316403E+00 -1.676892750E-02 -2.336551666E+01  2.379629280E+01  5.840038640E-07  0.00000E+00  9.000E+00
#rwgt            1           9   2.9960254677775737E-002          12     2384847           0
</event>
<event>
      6   9999  3.45752E-01  1.45886E+01 -1.00000E+00  1.71425E-01
      21    -1     0     0   501   502  0.000000000E+00  0.000000000E+00  9.146952488E+01  9.146952488E+01  0.000000000E+00  0.00000E+00  9.000E+00
      21    -1     0     0   502   512  0.000000000E+00  0.000000000E+00 -3.418541926E+02  3.418541926E+02  0.000000000E+00  0.00000E+00  9.000E+00
      25     1     1     2     0     0 -2.418051703E+01 -3.094204107E+01 -1.754240183E+02  2.189534008E+02  1.249995928E+02  0.00000E+00  9.000E+00
       5     1     1     2   501     0 -4.018095579E+00  1.692199438E-01  6.558449161E+01  6.587914516E+01  4.750000000E+00  0.00000E+00  9.000E+00
      -5     1     1     2     0   503  2.369860392E+01  1.689556164E+01 -6.267386823E+01  6.926514339E+01  4.750000000E+00  0.00000E+00  9.000E+00
      21     1     1     2   503   512  4.500008687E+00  1.387725949E+01 -7.787127275E+01  7.922602810E+01  1.651812370E-06  0.00000E+00  9.000E+00
#rwgt            1           9   1.0435812284993065               12     2389052           0
</event>
<event>
      6   9999  3.45752E-01  2.85401E+01 -1.00000E+00  1.49253E-01
      21    -1     0     0   501   511  0.000000000E+00  0.000000000E+00  4.783354197E+01  4.783354197E+01  0.000000000E+00  0.00000E+00  9.000E+00
      21    -1     0     0   502   503  0.000000000E+00  0.000000000E+00 -1.051283669E+03  1.051283669E+03  0.000000000E+00  0.00000E+00  9.000E+00
      25     1     1     2     0     0 -1.011553854E+01  1.820889209E+01 -6.598059069E+02  6.718650003E+02  1.249994240E+02  0.00000E+00  9.000E+00
       5     1     1     2   501     0 -5.959927795E+00 -7.966213391E-01  1.659885545E+01  1.828222763E+01  4.750000000E+00  0.00000E+00  9.000E+00
      -5     1     1     2     0   503 -1.076693633E+01 -7.715683442E+00 -3.760713488E+02  3.763345328E+02  4.750000000E+00  0.00000E+00  9.000E+00
      21     1     1     2   502   511  2.684240267E+01 -9.696587307E+00  1.582827314E+01  3.263545031E+01  1.338120956E-06  0.00000E+00  9.000E+00
#rwgt            1           9   2.6225092123040522E-004          12     2391867           0
</event>
<event>
      6   9999  3.45752E-01  2.09782E+01 -1.00000E+00  1.58643E-01
      21    -1     0     0   501   502  0.000000000E+00  0.000000000E+00  9.378925017E+01  9.378925017E+01  0.000000000E+00  0.00000E+00  9.000E+00
      21    -1     0     0   502   512  0.000000000E+00  0.000000000E+00 -1.101608028E+02  1.101608028E+02  0.000000000E+00  0.00000E+00  9.000E+00
      25     1     1     2     0     0  1.274875442E+01  3.187756724E+00  3.551488418E+01  1.306111928E+02  1.250011366E+02  0.00000E+00  9.000E+00
       5     1     1     2   501     0  7.903604336E-01  6.961740691E-01  5.198571193E+00  7.120180503E+00  4.750000000E+00  0.00000E+00  9.000E+00
      -5     1     1     2     0   503  6.459542556E-01  1.157142250E+01 -1.951680794E+01  2.319015670E+01  4.750000000E+00  0.00000E+00  9.000E+00
      21     1     1     2   503   512 -1.418506911E+01 -1.545535329E+01 -3.756820007E+01  4.302852295E+01  9.536743164E-07  0.00000E+00  9.000E+00
#rwgt            1           9   8.3175256838553019E-005          12     2394363           0
</event>
<event>
      6   9999  3.45752E-01  2.20582E+01 -1.00000E+00  1.57030E-01
      21    -1     0     0   501   502  0.000000000E+00  0.000000000E+00  2.869363119E+01  2.869363119E+01  0.000000000E+00  0.00000E+00  9.000E+00
      21    -1     0     0   511   503  0.000000000E+00  0.000000000E+00 -2.091027628E+03  2.091027628E+03  0.000000000E+00  0.00000E+00  9.000E+00
      25     1     1     2     0     0  5.792791794E+01 -5.198277393E+01 -6.859453215E+02  7.015727449E+02  1.250019190E+02  0.00000E+00  9.000E+00
       5     1     1     2   501     0 -5.726867935E+01  7.162571344E+01 -8.942321547E+01  1.281757326E+02  4.750000000E+00  0.00000E+00  9.000E+00
      -5     1     1     2     0   503  6.949798684E+00 -4.034716305E+01 -3.064510389E+02  3.092102764E+02  4.750000000E+00  0.00000E+00  9.000E+00
      21     1     1     2   511   502 -7.609037273E+00  2.070422354E+01 -9.805144206E+02  9.807625050E+02  1.078959322E-05  0.00000E+00  9.000E+00
#rwgt            1           9   1.0428290401991950E-004          12     2395676           0
</event>
<event>
      6   9999  3.45752E-01  5.22982E+00 -1.00000E+00  2.22721E-01
      21    -1     0     0   501   502  0.000000000E+00  0.000000000E+00  1.004760488E+03  1.004760488E+03  0.000000000E+00  0.00000E+00  9.000E+00
      21    -1     0     0   512   503  0.000000000E+00  0.000000000E+00 -2.373393960E+01  2.373393960E+01  0.000000000E+00  0.00000E+00  9.000E+00
      25     1     1     2     0     0 -9.438693340E-01  7.831178329E+00  8.909755939E+02  8.997353648E+02  1.249959977E+02  0.00000E+00  9.000E+00
       5     1     1     2   501     0  2.188856192E+00  2.771084685E+00  6.899485606E+01  6.924826831E+01  4.750000000E+00  0.00000E+00  9.000E+00
      -5     1     1     2     0   503 -1.530256579E+00 -5.380225587E+00  3.958423948E+01  4.025870127E+01  4.750000000E+00  0.00000E+00  9.000E+00
      21     1     1     2   512   502  2.852697209E-01 -5.222037427E+00 -1.852814144E+01  1.925209284E+01  1.192092896E-06  0.00000E+00  9.000E+00
#rwgt            1           9   1129.1435218006109               12     2397339           0
</event>
<event>
      6   9999  3.45752E-01  1.48833E+01 -1.00000E+00  1.70666E-01
      21    -1     0     0   502   511  0.000000000E+00  0.000000000E+00  3.219635350E+01  3.219635350E+01  0.000000000E+00  0.00000E+00  9.000E+00
      21    -1     0     0   501   502  0.000000000E+00  0.000000000E+00 -4.748636076E+02  4.748636076E+02  0.000000000E+00  0.00000E+00  9.000E+00
      25     1     1     2     0     0  3.477930129E+01  1.831866312E+00 -4.175625919E+02  4.372597994E+02  1.249986337E+02  0.00000E+00  9.000E+00
       5     1     1     2   501     0  6.083558404E-01 -1.118540242E+00  2.578039510E+00  5.552478439E+00  4.750000000E+00  0.00000E+00  9.000E+00
      -5     1     1     2     0   503 -3.826726238E+01 -1.531542748E+01 -1.335190834E+01  4.358648466E+01  4.750000000E+00  0.00000E+00  9.000E+00
      21     1     1     2   503   511  2.879605255E+00  1.460210141E+01 -1.433079337E+01  2.066119867E+01  2.920019320E-07  0.00000E+00  9.000E+00
#rwgt            1           9   7.0046678963721508E-005          12     2400954           0
</event>
<event>
      6   9999  3.45752E-01  5.19361E+00 -1.00000E+00  2.23179E-01
       2    -1     0     0   501     0  0.000000000E+00  0.000000000E+00  1.728515496E+03  1.728515496E+03  0.000000000E+00  0.00000E+00  9.000E+00
      21    -1     0     0   502   503  0.000000000E+00  0.000000000E+00 -8.575120266E+02  8.575120266E+02  0.000000000E+00  0.00000E+00  9.000E+00
      25     1     1     2     0     0 -1.238832781E+01 -3.011700187E+00 -4.135212363E+02  4.321892972E+02  1.250009391E+02  0.00000E+00  9.000E+00
       5     1     1     2   501     0 -4.314709572E-01 -9.803669060E-01  1.917188549E+00  5.233105998E+00  4.750000000E+00  0.00000E+00  9.000E+00
      -5     1     1     2     0   503  7.834887197E+00  2.534598159E+00 -4.329426919E+02  4.330470490E+02  4.750000000E+00  0.00000E+00  9.000E+00
       2     1     1     2   502     0  4.984911571E+00  1.457468935E+00  1.715550209E+03  1.715558070E+03  0.000000000E+00  0.00000E+00  9.000E+00
#rwgt            1           9   4.3872218451411621E-002          12     2402817           0
</event>
<event>
      6   9999  3.45752E-01  1.04823E+02 -1.00000E+00  1.19572E-01
      21    -1     0     0   501   502  0.000000000E+00  0.000000000E+00  8.033287738E+02  8.033287738E+02  0.000000000E+00  0.00000E+00  9.000E+00
      21    -1     0     0   511   503  0.000000000E+00  0.000000000E+00 -2.861359332E+02  2.861359332E+02  0.000000000E+00  0.00000E+00  9.000E+00
      25     1     1     2     0     0  3.204330194E+01 -7.452455960E+01 -1.752524403E+02  2.300417941E+02  1.250005041E+02  0.00000E+00  9.000E+00
       5     1     1     2   501     0  1.811794207E+01 -1.909156373E+01  7.251327640E+02  7.256258234E+02  4.750000000E+00  0.00000E+00  9.000E+00
      -5     1     1     2     0   503  1.414759389E+01  1.083841969E+01 -2.157929328E+01  2.838757039E+01  4.750000000E+00  0.00000E+00  9.000E+00
      21     1     1     2   511   502 -6.430883790E+01  8.277770365E+01 -1.110818980E+01  1.054095192E+02  2.023048729E-06  0.00000E+00  9.000E+00
#rwgt            1           9   3.2972485991200749E-002          12     2407104           0
</event>
<event>
      6   9999  3.45752E-01  4.76329E+00 -1.00000E+00  2.33130E-01
      21    -1     0     0   501   502  0.000000000E+00  0.000000000E+00  7.065687697E+01  7.065687697E+01  0.000000000E+00  0.00000E+00  9.000E+00
      21    -1     0     0   502   512  0.000000000E+00  0.000000000E+00 -5.104888035E+02  5.104888035E+02  0.000000000E+00  0.00000E+00  9.000E+00
      25     1     1     2     0     0  1.252355728E+01 -4.492840832E+01 -1.110731756E+02  1.736024070E+02  1.250005761E+02  0.00000E+00  9.000E+00
       5     1     1     2   501     0  4.342261947E+00 -1.014122237E+00  3.626411360E+01  3.684470271E+01  4.750000000E+00  0.00000E+00  9.000E+00
      -5     1     1     2     0   503 -1.522522565E+01  5.041437376E+01 -2.477922734E+02  2.533712490E+02  4.750000000E+00  0.00000E+00  9.000E+00
      21     1     1     2   503   512 -1.640593579E+00 -4.471843204E+00 -1.172305911E+02  1.173273217E+02  1.348699152E-06  0.00000E+00  9.000E+00
#rwgt            1           9   6.2126654416993921               12     2408659           0
</event>
<event>
      6   9999  3.45752E-01  5.78870E+00 -1.00000E+00  2.16250E-01
      21    -1     0     0   501   502  0.000000000E+00  0.000000000E+00  1.316816766E+01  1.316816766E+01  0.000000000E+00  0.00000E+00  9.000E+00
      21    -1     0     0   502   511  0.000000000E+00  0.000000000E+00 -8.959823346E+02  8.959823346E+02  0.000000000E+00  0.00000E+00  9.000E+00
      25     1     1     2     0     0 -6.430462549E+00 -2.208298251E+01 -4.939153840E+02  5.100053968E+02  1.249963571E+02  0.00000E+00  9.000E+00
       5     1     1     2   501     0 -3.903143061E-01 -5.643668390E-02  3.295517139E+00  5.794692707E+00  4.750000000E+00  0.00000E+00  9.000E+00
      -5     1     1     2     0   503  1.171683174E+01  1.905109639E+01 -3.519498554E+02  3.526917799E+02  4.750000000E+00  0.00000E+00  9.000E+00
      21     1     1     2   503   511 -4.896054886E+00  3.088322798E+00 -4.024444471E+01  4.065863280E+01  4.768371582E-07  0.00000E+00  9.000E+00
#rwgt            1           9   5.5696382718768245E-004          12     2414316           0
</event>
<event>
      6   9999  3.45752E-01  1.05469E+01 -1.00000E+00  1.84790E-01
       2    -1     0     0   501     0  0.000000000E+00  0.000000000E+00  5.219584089E+02  5.219584089E+02  0.000000000E+00  0.00000E+00  9.000E+00
      21    -1     0     0   502   503  0.000000000E+00  0.000000000E+00 -5.998681555E+02  5.998681555E+02  0.000000000E+00  0.00000E+00  9.000E+00
      25     1     1     2     0     0 -1.555719251E+01  1.914955650E+01 -5.303663507E+02  5.454551233E+02  1.249963750E+02  0.00000E+00  9.000E+00
       5     1     1     2   501     0 -7.807297039E-01  2.772790794E-01 -1.483564768E+00  5.044788100E+00  4.750000000E+00  0.00000E+00  9.000E+00
      -5     1     1     2     0   503  6.768266503E+00 -2.386065434E+01 -5.591992581E+01  6.135748413E+01  4.750000000E+00  0.00000E+00  9.000E+00
       2     1     1     2   502     0  9.569655706E+00  4.433818758E+00  5.098600947E+02  5.099691689E+02  5.394796609E-06  0.00000E+00  9.000E+00
#rwgt            1           9   7.3217297566382398E-003          12     2418307           0
</event>
<event>
      6   9999  3.45752E-01  3.07683E+02 -1.00000E+00  1.02791E-01
      21    -1     0     0   511   502  0.000000000E+00  0.000000000E+00  6.556631777E+01  6.556631777E+01  0.000000000E+00  0.00000E+00  9.000E+00
       2    -1     0     0   501     0  0.000000000E+00  0.000000000E+00 -2.918786960E+03  2.918786960E+03  0.000000000E+00  0.00000E+00  9.000E+00
      25     1     1     2     0     0  1.680325385E+02  5.728012393E+01 -1.356622178E+03  1.373887038E+03  1.250036452E+02  0.00000E+00  9.000E+00
       5     1     1     2   501     0  1.185804340E+02  5.517611405E+01 -1.077868549E+02  1.695473134E+02  4.750000000E+00  0.00000E+00  9.000E+00
      -5     1     1     2     0   502  3.190792555E+00 -9.100714556E+00  6.179111457E+00  1.239951938E+01  4.750000000E+00  0.00000E+00  9.000E+00
       2     1     1     2   511     0 -2.898037650E+02 -1.033555234E+02 -1.394990720E+03  1.428519407E+03  0.000000000E+00  0.00000E+00  9.000E+00
#rwgt            1           3   1.5871176267089285E-002          12     2420569           0
</event>
<event>
      6   9999  3.45752E-01  1.95971E+01 -1.00000E+00  1.60888E-01
      21    -1     0     0   502   503  0.000000000E+00  0.000000000E+00  2.976638056E+01  2.976638056E+01  0.000000000E+00  0.00000E+00  9.000E+00
      21    -1     0     0   512   502  0.000000000E+00  0.000000000E+00 -1.462204848E+03  1.462204848E+03  0.000000000E+00  0.00000E+00  9.000E+00
      25     1     1     2     0     0 -1.649379592E+00 -4.874492759E+01 -5.854195781E+02  6.005962807E+02  1.249840853E+02  0.00000E+00  9.000E+00
       5     1     1     2   501     0 -4.010270083E+01  3.003811900E+01 -5.072304296E+02  5.097212831E+02  4.750000000E+00  0.00000E+00  9.000E+00
      -5     1     1     2     0   503  4.092168310E+01 -8.727264302E-01  9.491174623E-02  4.120579216E+01  4.750000000E+00  0.00000E+00  9.000E+00
      21     1     1     2   512   501  8.303973272E-01  1.957953502E+01 -3.398833718E+02  3.404478729E+02  0.000000000E+00  0.00000E+00  9.000E+00
#rwgt            1           9   2.0855082192976718E-002          12     2421527           0
</event>
<event>
      6   9999  3.45752E-01  3.53899E+01 -1.00000E+00  1.43341E-01
      21    -1     0     0   501   502  0.000000000E+00  0.000000000E+00  3.881657723E+01  3.881657723E+01  0.000000000E+00  0.00000E+00  9.000E+00
      21    -1     0     0   502   511  0.000000000E+00  0.000000000E+00 -1.555897204E+03  1.555897204E+03  0.000000000E+00  0.00000E+00  9.000E+00
      25     1     1     2     0     0  1.286869094E+00  4.976450723E+01 -6.348504836E+02  6.489499044E+02  1.249907184E+02  0.00000E+00  9.000E+00
       5     1     1     2   501     0 -1.737690982E+00  7.497395223E+00  2.931796298E+01  3.068119878E+01  4.750000000E+00  0.00000E+00  9.000E+00
      -5     1     1     2     0   503 -2.598384914E+01 -3.373205867E+01 -6.008469294E+02  6.023724821E+02  4.750000000E+00  0.00000E+00  9.000E+00
      21     1     1     2   503   511  2.643467103E+01 -2.352984379E+01 -3.107011769E+02  3.127101960E+02  6.607249480E-06  0.00000E+00  9.000E+00
#rwgt            1           9   4.7150828236118244E-004          12     2423832           0
</event>
<event>
      6   9999  3.45752E-01  3.23751E+01 -1.00000E+00  1.45729E-01
      21    -1     0     0   501   512  0.000000000E+00  0.000000000E+00  7.362768516E+01  7.362768516E+01  0.000000000E+00  0.00000E+00  9.000E+00
      21    -1     0     0   502   503  0.000000000E+00  0.000000000E+00 -1.435100482E+03  1.435100482E+03  0.000000000E+00  0.00000E+00  9.000E+00
      25     1     1     2     0     0  6.308300883E+01  1.677157501E+02 -1.075204733E+03  1.097177397E+03  1.249999340E+02  0.00000E+00  9.000E+00
       5     1     1     2   501     0  1.084210898E+01  7.291243844E+00  3.518753878E+01  3.783436201E+01  4.750000000E+00  0.00000E+00  9.000E+00
      -5     1     1     2     0   503 -6.591047354E+01 -1.436396454E+02 -2.716471657E+02  3.143108070E+02  4.750000000E+00  0.00000E+00  9.000E+00
      21     1     1     2   502   512 -8.014644264E+00 -3.136734855E+01 -4.980843687E+01  5.940560126E+01  9.536743164E-07  0.00000E+00  9.000E+00
#rwgt            1           9   3.5184936885944654E-003          12     2425193           0
</event>
<event>
      6   9999 -3.45752E-01  1.01381E+01 -1.00000E+00  1.86568E-01
      21    -1     0     0   502   511  0.000000000E+00  0.000000000E+00  1.109471367E+01  1.109471367E+01  0.000000000E+00  0.00000E+00  9.000E+00
      21    -1     0     0   501   502  0.000000000E+00  0.000000000E+00 -7.608702196E+02  7.608702196E+02  0.000000000E+00  0.00000E+00  9.000E+00
      25     1     1     2     0     0 -2.310827536E+01  9.770327232E+00 -5.346610115E+02  5.496508057E+02  1.249966369E+02  0.00000E+00  9.000E+00
       5     1     1     2   501     0 -1.114809025E+00 -8.192082960E-01 -1.233136254E+02  1.234128300E+02  4.750000000E+00  0.00000E+00  9.000E+00
      -5     1     1     2     0   503  1.792835809E+01 -1.003899235E+00 -8.421571848E+01  8.623968679E+01  4.750000000E+00  0.00000E+00  9.000E+00
      21     1     1     2   503   511  6.294726295E+00 -7.947219701E+00 -7.585150562E+00  1.266161084E+01  1.460009660E-07  0.00000E+00  9.000E+00
#rwgt            1           9  -2.1475783764689795E-003          12     2427376           0
</event>
<event>
      6   9999  3.45752E-01  1.38316E+02 -1.00000E+00  1.14738E-01
      21    -1     0     0   512   502  0.000000000E+00  0.000000000E+00  7.409764028E+01  7.409764028E+01  0.000000000E+00  0.00000E+00  9.000E+00
      21    -1     0     0   502   503  0.000000000E+00  0.000000000E+00 -1.206254704E+03  1.206254704E+03  0.000000000E+00  0.00000E+00  9.000E+00
      25     1     1     2     0     0 -5.310237623E+01 -9.250176606E+01 -8.517630598E+02  8.674694613E+02  1.250060681E+02  0.00000E+00  9.000E+00
       5     1     1     2   501     0  5.201405053E+01 -3.904810520E+01 -5.554393719E+01  8.566158667E+01  4.750000000E+00  0.00000E+00  9.000E+00
      -5     1     1     2     0   503 -1.508209253E+01 -5.817569965E+00 -1.814868931E+02  1.822672996E+02  4.750000000E+00  0.00000E+00  9.000E+00
      21     1     1     2   512   501  1.617041823E+01  1.373674412E+02 -4.336317355E+01  1.449539967E+02  2.336015456E-06  0.00000E+00  9.000E+00
#rwgt            1           9   9.5729600240338831E-004          12     2429709           0
</event>
<event>
      6   9999  3.45752E-01  3.49767E+01 -1.00000E+00  1.43652E-01
       1    -1     0     0   502     0  0.000000000E+00  0.000000000E+00  6.458072491E+01  6.458072491E+01  0.000000000E+00  0.00000E+00  9.000E+00
      21    -1     0     0   501   502  0.000000000E+00  0.000000000E+00 -8.780528718E+02  8.780528718E+02  0.000000000E+00  0.00000E+00  9.000E+00
      25     1     1     2     0     0  2.118656307E+01  1.016989072E+01 -7.940694235E+02  8.041918180E+02  1.250037349E+02  0.00000E+00  9.000E+00
       5     1     1     2   501     0 -1.062161556E+00  1.733859003E+00 -3.356475872E+00  6.161402802E+00  4.750000000E+00  0.00000E+00  9.000E+00
      -5     1     1     2     0   503 -4.507631796E+01  1.260685534E+01 -5.991258779E+01  7.617668881E+01  4.750000000E+00  0.00000E+00  9.000E+00
       1     1     1     2   503     0  2.495191644E+01 -2.451060506E+01  4.386634026E+01  5.610368706E+01  2.477718555E-06  0.00000E+00  9.000E+00
#rwgt            1           9   1.1814685993381706E-004          12     2429990           0
</event>
<event>
      6   9999  3.45752E-01  8.18939E+00 -1.00000E+00  1.96820E-01
      21    -1     0     0   501   502  0.000000000E+00  0.000000000E+00  8.166169816E+00  8.166169816E+00  0.000000000E+00  0.00000E+00  9.000E+00
      21    -1     0     0   502   511  0.000000000E+00  0.000000000E+00 -1.093777751E+03  1.093777751E+03  0.000000000E+00  0.00000E+00  9.000E+00
      25     1     1     2     0     0 -1.157472453E+01  1.309546354E+01 -5.750290980E+02  5.887185333E+02  1.250023299E+02  0.00000E+00  9.000E+00
       5     1     1     2   501     0 -9.063662278E-03  6.619528825E-02 -4.205701271E+00  6.344673920E+00  4.750000000E+00  0.00000E+00  9.000E+00
      -5     1     1     2     0   503  9.376779586E+00 -5.275266793E+00 -1.709961496E+02  1.714001112E+02  4.750000000E+00  0.00000E+00  9.000E+00
      21     1     1     2   503   511  2.207008603E+00 -7.886392037E+00 -3.353806325E+02  3.354806026E+02  0.000000000E+00  0.00000E+00  9.000E+00
#rwgt            1           9   1.9344794043787306E-005          12     2431118           0
</event>
<event>
      6   9999  3.45752E-01  2.00022E+02 -1.00000E+00  1.08892E-01
      21    -1     0     0   512   502  0.000000000E+00  0.000000000E+00  4.504381480E+01  4.504381480E+01  0.000000000E+00  0.00000E+00  9.000E+00
       2    -1     0     0   501     0  0.000000000E+00  0.000000000E+00 -1.604183985E+03  1.604183985E+03  0.000000000E+00  0.00000E+00  9.000E+00
      25     1     1     2     0     0  1.622942401E+02  5.016033386E+01 -8.047818069E+02  8.319588648E+02  1.250052660E+02  0.00000E+00  9.000E+00
       5     1     1     2   501     0  2.444044587E+01 -2.883164296E+00 -2.074633874E+01  3.253645804E+01  4.750000000E+00  0.00000E+00  9.000E+00
      -5     1     1     2     0   502  1.100613953E+01 -7.739811750E+01 -1.915307582E+02  2.069255846E+02  4.750000000E+00  0.00000E+00  9.000E+00
       2     1     1     2   512     0 -1.977408255E+02  3.012094793E+01 -5.420812663E+02  5.778068923E+02  1.078959322E-05  0.00000E+00  9.000E+00
#rwgt            1           3   5.1084745871886610E-004          12     2433785           0
</event>
<event>
      6   9999  3.45752E-01  1.68396E+01 -1.00000E+00  1.66129E-01
      21    -1     0     0   501   502  0.000000000E+00  0.000000000E+00  2.756099722E+01  2.756099722E+01  0.000000000E+00  0.00000E+00  9.000E+00
      21    -1     0     0   511   503  0.000000000E+00  0.000000000E+00 -1.080515519E+03  1.080515519E+03  0.000000000E+00  0.00000E+00  9.000E+00
      25     1     1     2     0     0  2.173283878E+01  1.172555208E+01 -8.446266067E+02  8.541834591E+02  1.250018890E+02  0.00000E+00  9.000E+00
       5     1     1     2   501     0  5.755069985E-01  2.061073225E+00  2.135955852E+01  2.198573336E+01  4.750000000E+00  0.00000E+00  9.000E+00
      -5     1     1     2     0   503 -5.508089120E+00 -1.263569240E+01 -8.475546209E+01  8.600029432E+01  4.750000000E+00  0.00000E+00  9.000E+00
      21     1     1     2   511   502 -1.680025666E+01 -1.150932909E+00 -1.449320117E+02  1.459070296E+02  1.907348633E-06  0.00000E+00  9.000E+00
#rwgt            1           9   1.5490381669311546E-003          12     2434180           0
</event>
<event>
      6   9999  3.45752E-01  1.13602E+01 -1.00000E+00  1.81542E-01
      21    -1     0     0   512   502  0.000000000E+00  0.000000000E+00  1.194958828E+02  1.194958828E+02  0.000000000E+00  0.00000E+00  9.000E+00
      21    -1     0     0   502   503  0.000000000E+00  0.000000000E+00 -1.668132841E+03  1.668132841E+03  0.000000000E+00  0.00000E+00  9.000E+00
      25     1     1     2     0     0  3.522160432E+01 -8.809164967E+01 -1.346130092E+02  2.067512161E+02  1.249988118E+02  0.00000E+00  9.000E+00
       5     1     1     2   501     0  8.614231714E+00  1.199457519E+02  5.229036979E+00  1.204620012E+02  4.750000000E+00  0.00000E+00  9.000E+00
      -5     1     1     2     0   503 -5.188668741E+01 -3.986898104E+01 -1.437459275E+03  1.438955696E+03  4.750000000E+00  0.00000E+00  9.000E+00
      21     1     1     2   512   501  8.050851382E+00  8.014878775E+00  1.820628948E+01  2.145981049E+01  9.830249847E-07  0.00000E+00  9.000E+00
#rwgt            1           9   2.8378685119064655E-002          12     2436338           0
</event>
<event>
      6   9999  3.45752E-01  2.42527E+01 -1.00000E+00  1.54072E-01
      21    -1     0     0   501   502  0.000000000E+00  0.000000000E+00  4.152532954E+01  4.152532954E+01  0.000000000E+00  0.00000E+00  9.000E+00
      21    -1     0     0   511   503  0.000000000E+00  0.000000000E+00 -1.343512148E+03  1.343512148E+03  0.000000000E+00  0.00000E+00  9.000E+00
      25     1     1     2     0     0 -1.337194465E+02  1.309513179E+02 -6.336693287E+02  6.724511864E+02  1.249985675E+02  0.00000E+00  9.000E+00
       5     1     1     2   501     0 -1.210435565E+00  3.729218241E+00  6.437636262E+00  8.909426670E+00  4.750000000E+00  0.00000E+00  9.000E+00
      -5     1     1     2     0   503  1.257176575E+02 -1.122456035E+02 -5.100108482E+02  5.371569908E+02  4.750000000E+00  0.00000E+00  9.000E+00
      21     1     1     2   511   502  9.212224498E+00 -2.243493264E+01 -1.647442775E+02  1.665198734E+02  0.000000000E+00  0.00000E+00  9.000E+00
#rwgt            1           9   3.1303404011223676E-003          12     2440422           0
</event>
<event>
      6   9999  3.45752E-01  6.68695E+00 -1.00000E+00  2.07704E-01
      21    -1     0     0   512   502  0.000000000E+00  0.000000000E+00  2.605791347E+02  2.605791347E+02  0.000000000E+00  0.00000E+00  9.000E+00
      21    -1     0     0   502   503  0.000000000E+00  0.000000000E+00 -7.349013448E+02  7.349013448E+02  0.000000000E+00  0.00000E+00  9.000E+00
      25     1     1     2     0     0 -1.226268716E+02  1.344994792E+02 -3.682058061E+02  4.293288967E+02  1.249813039E+02  0.00000E+00  9.000E+00
       5     1     1     2   501     0  1.315826628E+00  4.957819627E+00  4.873906852E+01  4.923789877E+01  4.750000000E+00  0.00000E+00  9.000E+00
      -5     1     1     2     0   503  1.191703429E+02 -1.457923346E+02 -3.093990549E+02  3.622255004E+02  4.750000000E+00  0.00000E+00  9.000E+00
      21     1     1     2   512   501  2.140702076E+00  6.335035696E+00  1.545435825E+02  1.546881836E+02  4.264961200E-06  0.00000E+00  9.000E+00
#rwgt            1           9   1.9641810669951416E-002          12     2442739           0
</event>
<event>
      6   9999 -3.45752E-01  8.99533E+00 -1.00000E+00  1.92171E-01
      21    -1     0     0   501   511  0.000000000E+00  0.000000000E+00  6.257685425E+01  6.257685425E+01  0.000000000E+00  0.00000E+00  9.000E+00
      21    -1     0     0   502   503  0.000000000E+00  0.000000000E+00 -2.005855228E+02  2.005855228E+02  0.000000000E+00  0.00000E+00  9.000E+00
      25     1     1     2     0     0 -8.250341701E+00 -2.778539461E-01 -1.726250242E+02  2.132910866E+02  1.250021732E+02  0.00000E+00  9.000E+00
       5     1     1     2   501     0 -7.804941150E-01 -3.291611041E+00  3.242155516E+01  3.294182165E+01  4.750000000E+00  0.00000E+00  9.000E+00
      -5     1     1     2     0   503  2.557220284E+00 -2.676196442E+00  4.646317908E+00  7.606061601E+00  4.750000000E+00  0.00000E+00  9.000E+00
      21     1     1     2   502   511  6.473615532E+00  6.245661429E+00 -2.451517484E+00  9.323407248E+00  2.457562462E-07  0.00000E+00  9.000E+00
#rwgt            1           9  -6.0308707370328903E-002          12     2448175           0
</event>
<event>
      6   9999  3.45752E-01  5.19328E+00 -1.00000E+00  2.23183E-01
      21    -1     0     0   501   512  0.000000000E+00  0.000000000E+00  5.709682469E+01  5.709682469E+01  0.000000000E+00  0.00000E+00  9.000E+00
      21    -1     0     0   502   503  0.000000000E+00  0.000000000E+00 -1.994443070E+02  1.994443070E+02  0.000000000E+00  0.00000E+00  9.000E+00
      25     1     1     2     0     0 -1.079992414E+01  8.618501199E+00 -1.180961122E+02  1.725172489E+02  1.249983701E+02  0.00000E+00  9.000E+00
       5     1     1     2   501     0 -3.262414989E-01  2.531756223E+00  2.623593181E+01  2.678437680E+01  4.750000000E+00  0.00000E+00  9.000E+00
      -5     1     1     2     0   503  1.595971964E+01 -9.251056815E+00 -4.766162228E+01  5.132725828E+01  4.750000000E+00  0.00000E+00  9.000E+00
      21     1     1     2   502   512 -4.833554005E+00 -1.899200607E+00 -2.825679555E+00  5.912247645E+00  6.664001875E-08  0.00000E+00  9.000E+00
#rwgt            1           9   2.9797648541965112               12     2451238           0
</event>
<event>
      6   9999  3.45752E-01  2.99323E+00 -1.00000E+00  2.77168E-01
      21    -1     0     0   511   502  0.000000000E+00  0.000000000E+00  1.859412379E+02  1.859412379E+02  0.000000000E+00  0.00000E+00  9.000E+00
      21    -1     0     0   502   503  0.000000000E+00  0.000000000E+00 -1.039079286E+03  1.039079286E+03  0.000000000E+00  0.00000E+00  9.000E+00
      25     1     1     2     0     0 -2.086430830E+00 -1.385144037E+00 -9.895945992E+02  9.974603339E+02  1.249935009E+02  0.00000E+00  9.000E+00
       5     1     1     2   501     0  3.338504174E+00 -1.823561172E+00  1.673582828E+01  1.780790369E+01  4.750000000E+00  0.00000E+00  9.000E+00
      -5     1     1     2     0   503  1.172469538E+00  1.453415112E+00 -4.485746033E+01  4.514688636E+01  4.750000000E+00  0.00000E+00  9.000E+00
      21     1     1     2   511   501 -2.424542882E+00  1.755290097E+00  1.645781829E+02  1.646054001E+02  5.722045898E-06  0.00000E+00  9.000E+00
#rwgt            1           9   5.1654861643891374E-002          12     2455927           0
</event>
<event>
      6   9999  3.45752E-01  4.66451E+00 -1.00000E+00  2.34799E-01
      -2    -1     0     0     0   502  0.000000000E+00  0.000000000E+00  1.198571157E+03  1.198571157E+03  0.000000000E+00  0.00000E+00  9.000E+00
      21    -1     0     0   502   503  0.000000000E+00  0.000000000E+00 -7.848500636E+00  7.848500636E+00  0.000000000E+00  0.00000E+00  9.000E+00
      25     1     1     2     0     0  3.657807800E+00  1.203822347E+00  5.138315450E+02  5.288280481E+02  1.249856753E+02  0.00000E+00  9.000E+00
       5     1     1     2   501     0  2.129110121E-01  4.004725743E-01  5.294375956E+01  5.315834729E+01  4.750000000E+00  0.00000E+00  9.000E+00
      -5     1     1     2     0   503 -7.206019302E-02  1.102698468E+00  2.519002441E+01  2.565776620E+01  4.750000000E+00  0.00000E+00  9.000E+00
      -2     1     1     2     0   501 -3.798658619E+00 -2.706993389E+00  5.987573271E+02  5.987754958E+02  7.629394531E-06  0.00000E+00  9.000E+00
#rwgt            1           9   1.7722177256368260E-004          12     2463059           0
</event>
<event>
      6   9999  3.45752E-01  1.42998E+01 -1.00000E+00  1.72191E-01
      21    -1     0     0   511   503  0.000000000E+00  0.000000000E+00  1.017081240E+03  1.017081240E+03  0.000000000E+00  0.00000E+00  9.000E+00
      21    -1     0     0   501   502  0.000000000E+00  0.000000000E+00 -5.844071540E+00  5.844071540E+00  0.000000000E+00  0.00000E+00  9.000E+00
      25     1     1     2     0     0 -1.017134852E+01 -1.787258141E+00  8.324600107E+02  8.418557047E+02  1.249988298E+02  0.00000E+00  9.000E+00
       5     1     1     2   501     0 -2.070773429E+00 -4.983189270E+00  2.862330672E+01  2.951231040E+01  4.750000000E+00  0.00000E+00  9.000E+00
      -5     1     1     2     0   503  1.289200925E+00 -2.422872049E+00  2.534371033E+01  2.593064791E+01  4.750000000E+00  0.00000E+00  9.000E+00
      21     1     1     2   511   502  1.095292102E+01  9.193319460E+00  1.248101406E+02  1.256266484E+02  1.907348633E-06  0.00000E+00  9.000E+00
#rwgt            1           9   4.1566594037592677E-002          12     2466728           0
</event>
<event>
      6   9999  3.45752E-01  3.77646E+01 -1.00000E+00  1.41650E-01
      21    -1     0     0   502   503  0.000000000E+00  0.000000000E+00  1.268985781E+01  1.268985781E+01  0.000000000E+00  0.00000E+00  9.000E+00
      21    -1     0     0   512   502  0.000000000E+00  0.000000000E+00 -1.008310042E+03  1.008310042E+03  0.000000000E+00  0.00000E+00  9.000E+00
      25     1     1     2     0     0  3.441812549E+01  3.160185212E+01 -4.536441014E+02  4.728632954E+02  1.249937638E+02  0.00000E+00  9.000E+00
       5     1     1     2   501     0 -4.464057213E+00  1.981158101E+01 -1.782280773E+02  1.794442437E+02  4.750000000E+00  0.00000E+00  9.000E+00
      -5     1     1     2     0   503 -1.151162793E+01 -1.845829217E+01 -1.476146819E+02  1.492845703E+02  4.750000000E+00  0.00000E+00  9.000E+00
      21     1     1     2   512   501 -1.844244035E+01 -3.295514096E+01 -2.161333236E+02  2.194077904E+02  3.814697266E-06  0.00000E+00  9.000E+00
#rwgt            1           9   4.3620988004946755               12     2468100           0
</event>
<event>
      6   9999  3.45752E-01  1.63988E+01 -1.00000E+00  1.67083E-01
      21    -1     0     0   501   502  0.000000000E+00  0.000000000E+00  1.693764199E+02  1.693764199E+02  0.000000000E+00  0.00000E+00  9.000E+00
      -1    -1     0     0     0   503  0.000000000E+00  0.000000000E+00 -7.024239591E+02  7.024239591E+02  0.000000000E+00  0.00000E+00  9.000E+00
      25     1     1     2     0     0  4.086995438E+01 -6.460533261E+01 -1.436081905E+02  2.051704111E+02  1.250095318E+02  0.00000E+00  9.000E+00
       5     1     1     2   501     0 -3.686558793E+00  2.308177695E+00  1.344235643E+02  1.345777676E+02  4.750000000E+00  0.00000E+00  9.000E+00
      -5     1     1     2     0   503 -2.195010114E+01  5.622530283E+01 -2.333394205E+02  2.410662550E+02  4.750000000E+00  0.00000E+00  9.000E+00
      -1     1     1     2     0   502 -1.523329444E+01  6.071852080E+00 -2.905234926E+02  2.909859454E+02  5.394796609E-06  0.00000E+00  9.000E+00
#rwgt            1           9   4.4259036089756529               12     2468971           0
</event>
<event>
      6   9999  3.45752E-01  5.70103E+00 -1.00000E+00  2.17197E-01
      21    -1     0     0   502   503  0.000000000E+00  0.000000000E+00  2.473244298E+01  2.473244298E+01  0.000000000E+00  0.00000E+00  9.000E+00
      21    -1     0     0   501   511  0.000000000E+00  0.000000000E+00 -4.542561731E+02  4.542561731E+02  0.000000000E+00  0.00000E+00  9.000E+00
      25     1     1     2     0     0 -2.141760751E+00  8.656454029E+00 -1.555978223E+02  1.997922564E+02  1.250069681E+02  0.00000E+00  9.000E+00
       5     1     1     2   501     0 -1.635876343E+00 -4.042637324E+00 -3.828700936E+00  7.499363893E+00  4.750000000E+00  0.00000E+00  9.000E+00
      -5     1     1     2     0   503  2.616998676E-01 -1.260595318E-01 -6.592788810E+00  8.130912748E+00  4.750000000E+00  0.00000E+00  9.000E+00
      21     1     1     2   502   511  3.515937226E+00 -4.487757173E+00 -2.635044181E+02  2.635660830E+02  0.000000000E+00  0.00000E+00  9.000E+00
#rwgt            1           9   2.6299563565548092               12     2471634           0
</event>
<event>
      6   9999  3.45752E-01  1.36639E+01 -1.00000E+00  1.73959E-01
      21    -1     0     0   502   503  0.000000000E+00  0.000000000E+00  1.690895884E+01  1.690895884E+01  0.000000000E+00  0.00000E+00  9.000E+00
       2    -1     0     0   501     0  0.000000000E+00  0.000000000E+00 -2.675292651E+03  2.675292651E+03  0.000000000E+00  0.00000E+00  9.000E+00
      25     1     1     2     0     0 -6.068353980E+01  3.878771507E+01 -3.539819402E+02  3.822608288E+02  1.250325892E+02  0.00000E+00  9.000E+00
       5     1     1     2   501     0  5.492858794E+01 -3.386015861E+01 -5.557507624E+02  5.595043633E+02  4.750000000E+00  0.00000E+00  9.000E+00
      -5     1     1     2     0   503 -3.159062248E+00  5.428268130E+00 -1.703998409E+01  1.877150306E+01  4.750000000E+00  0.00000E+00  9.000E+00
       2     1     1     2   502     0  8.914014107E+00 -1.035582459E+01 -1.731611006E+03  1.731664915E+03  2.157918644E-05  0.00000E+00  9.000E+00
#rwgt            1           9   3.1128330976694353E-002          12     2475223           0
</event>
<event>
      6   9999  3.45752E-01  4.09099E+01 -1.00000E+00  1.39622E-01
      21    -1     0     0   511   502  0.000000000E+00  0.000000000E+00  3.949221410E+01  3.949221410E+01  0.000000000E+00  0.00000E+00  9.000E+00
      21    -1     0     0   502   503  0.000000000E+00  0.000000000E+00 -1.251726602E+03  1.251726602E+03  0.000000000E+00  0.00000E+00  9.000E+00
      25     1     1     2     0     0  2.049477403E+01 -7.996871429E+01 -5.024609261E+02  5.243154107E+02  1.249985466E+02  0.00000E+00  9.000E+00
       5     1     1     2   501     0 -1.483866341E+01  1.716663858E+02 -3.712058663E+02  4.092748363E+02  4.750000000E+00  0.00000E+00  9.000E+00
      -5     1     1     2     0   503  2.257721698E+01 -6.209197050E+01 -2.679573033E+02  2.760232281E+02  4.750000000E+00  0.00000E+00  9.000E+00
      21     1     1     2   511   501 -2.823332761E+01 -2.960570099E+01 -7.061029203E+01  8.160534088E+01  1.348699152E-06  0.00000E+00  9.000E+00
#rwgt            1           9   1.5665813776002322E-002          12     2477772           0
</event>
<event>
      6   9999  3.45752E-01  3.52623E+01 -1.00000E+00  1.43437E-01
      21    -1     0     0   501   512  0.000000000E+00  0.000000000E+00  1.473859492E+01  1.473859492E+01  0.000000000E+00  0.00000E+00  9.000E+00
      21    -1     0     0   502   503  0.000000000E+00  0.000000000E+00 -8.970899035E+02  8.970899035E+02  0.000000000E+00  0.00000E+00  9.000E+00
      25     1     1     2     0     0  3.827572374E+01  1.316022526E+01 -6.794129013E+02  6.920010171E+02  1.250011789E+02  0.00000E+00  9.000E+00
       5     1     1     2   501     0 -9.806561158E+00  3.133369596E+00 -7.858049055E+01  7.939422298E+01  4.750000000E+00  0.00000E+00  9.000E+00
      -5     1     1     2     0   503 -7.999498541E+00  1.241918623E+01 -8.955203346E+01  9.088650814E+01  4.750000000E+00  0.00000E+00  9.000E+00
      21     1     1     2   502   512 -2.046966404E+01 -2.871278109E+01 -3.480588333E+01  4.954675023E+01  4.768371582E-07  0.00000E+00  9.000E+00
#rwgt            1           9   5.5058856693638294E-003          12     2479396           0
</event>
<event>
      6   9999  3.45752E-01  3.96764E+00 -1.00000E+00  2.48582E-01
      21    -1     0     0   511   502  0.000000000E+00  0.000000000E+00  4.569794066E+01  4.569794066E+01  0.000000000E+00  0.00000E+00  9.000E+00
      21    -1     0     0   502   503  0.000000000E+00  0.000000000E+00 -8.839324075E+02  8.839324075E+02  0.000000000E+00  0.00000E+00  9.000E+00
      25     1     1     2     0     0  1.214987298E+01  3.908914052E+01 -3.358437463E+02  3.606813578E+02  1.249977582E+02  0.00000E+00  9.000E+00
       5     1     1     2   501     0 -9.081047680E-02  1.715994900E-01 -5.771129649E+00  7.477040214E+00  4.750000000E+00  0.00000E+00  9.000E+00
      -5     1     1     2     0   503 -1.012325767E+01 -4.272409024E+01 -5.279989773E+02  5.298427227E+02  4.750000000E+00  0.00000E+00  9.000E+00
      21     1     1     2   511   501 -1.935804836E+00  3.463350225E+00  3.137938649E+01  3.162922749E+01  3.371747881E-07  0.00000E+00  9.000E+00
#rwgt            1           9   8.3973584671776891E-004          12     2480224           0
</event>
<event>
      6   9999  3.45752E-01  4.68770E+00 -1.00000E+00  2.34402E-01
      21    -1     0     0   501   502  0.000000000E+00  0.000000000E+00  9.156483802E+01  9.156483802E+01  0.000000000E+00  0.00000E+00  9.000E+00
      21    -1     0     0   512   503  0.000000000E+00  0.000000000E+00 -1.677847755E+03  1.677847755E+03  0.000000000E+00  0.00000E+00  9.000E+00
      25     1     1     2     0     0  5.074235797E+00 -3.015240077E+01 -1.543861240E+03  1.549215125E+03  1.250002354E+02  0.00000E+00  9.000E+00
       5     1     1     2   501     0  3.039272992E+00  1.092426259E+01  8.732809147E+01  8.818919862E+01  4.750000000E+00  0.00000E+00  9.000E+00
      -5     1     1     2     0   503 -4.495274923E+00  1.624771481E+01 -7.326841869E+01  7.533272470E+01  4.750000000E+00  0.00000E+00  9.000E+00
      21     1     1     2   512   502 -3.618233866E+00  2.980423369E+00 -5.648135001E+01  5.667554533E+01  6.743495762E-07  0.00000E+00  9.000E+00
#rwgt            1           9   1.2542299431044041E-004          12     2485452           0
</event>
<event>
      6   9999  3.45752E-01  1.51567E+01 -1.00000E+00  1.69981E-01
      21    -1     0     0   501   502  0.000000000E+00  0.000000000E+00  2.395362763E+01  2.395362763E+01  0.000000000E+00  0.00000E+00  9.000E+00
      21    -1     0     0   502   511  0.000000000E+00  0.000000000E+00 -4.337720151E+02  4.337720151E+02  0.000000000E+00  0.00000E+00  9.000E+00
      25     1     1     2     0     0  3.130853905E+00  2.803146337E+01 -2.832891632E+02  3.109226435E+02  1.249983004E+02  0.00000E+00  9.000E+00
       5     1     1     2   501     0  5.237187485E-01  1.063916530E+00  2.831405806E-01  4.903964549E+00  4.750000000E+00  0.00000E+00  9.000E+00
      -5     1     1     2     0   503 -1.828960614E+00 -1.404898439E+01 -7.846695264E-01  1.496319704E+01  4.750000000E+00  0.00000E+00  9.000E+00
      21     1     1     2   503   511 -1.825612039E+00 -1.504639550E+01 -1.260276953E+02  1.269358376E+02  1.348699152E-06  0.00000E+00  9.000E+00
#rwgt            1           9   8.0931184274571854E-005          12     2493235           0
</event>
<event>
      6   9999  3.45752E-01  2.93054E+01 -1.00000E+00  1.48499E-01
      21    -1     0     0   501   502  0.000000000E+00  0.000000000E+00  1.017200268E+01  1.017200268E+01  0.000000000E+00  0.00000E+00  9.000E+00
       3    -1     0     0   502     0  0.000000000E+00  0.000000000E+00 -1.314615927E+03  1.314615927E+03  0.000000000E+00  0.00000E+00  9.000E+00
      25     1     1     2     0     0  3.014706529E+01 -7.464934410E-01 -5.551157303E+02  5.698145719E+02  1.250030782E+02  0.00000E+00  9.000E+00
       5     1     1     2   501     0 -7.599639642E+00  4.034448476E+00 -1.876866527E+01  2.118623594E+01  4.750000000E+00  0.00000E+00  9.000E+00
      -5     1     1     2     0   503 -9.601193077E+00 -2.957872236E+01 -2.038639414E+02  2.062768839E+02  4.750000000E+00  0.00000E+00  9.000E+00
       3     1     1     2   503     0 -1.294623257E+01  2.629076732E+01 -5.266955870E+02  5.275102376E+02  0.000000000E+00  0.00000E+00  9.000E+00
#rwgt            1           9   4.3201207240413523E-003          12     2494784           0
</event>
<event>
      6   9999  3.45752E-01  8.84445E+00 -1.00000E+00  1.92992E-01
      21    -1     0     0   501   502  0.000000000E+00  0.000000000E+00  1.188663922E+01  1.188663922E+01  0.000000000E+00  0.00000E+00  9.000E+00
       2    -1     0     0   502     0  0.000000000E+00  0.000000000E+00 -1.587421197E+03  1.587421197E+03  0.000000000E+00  0.00000E+00  9.000E+00
      25     1     1     2     0     0 -1.707819657E+01 -4.462086059E+01 -5.873330300E+02  6.023851329E+02  1.250002968E+02  0.00000E+00  9.000E+00
       5     1     1     2   501     0 -2.041039660E-01 -1.763094846E-01 -1.312407748E+00  4.935347765E+00  4.750000000E+00  0.00000E+00  9.000E+00
      -5     1     1     2     0   503  2.310384863E+01  3.813879544E+01 -1.966259364E+02  2.016746808E+02  4.750000000E+00  0.00000E+00  9.000E+00
       2     1     1     2   503     0 -5.821548090E+00  6.658374637E+00 -7.902631835E+02  7.903126746E+02  1.525878906E-05  0.00000E+00  9.000E+00
#rwgt            1           9   5.9124194872004735E-005          12     2495718           0
</event>
<event>
      6   9999  3.45752E-01  2.35817E+00 -1.00000E+00  3.07459E-01
      21    -1     0     0   501   502  0.000000000E+00  0.000000000E+00  7.132938961E+00  7.132938961E+00  0.000000000E+00  0.00000E+00  9.000E+00
      21    -1     0     0   502   511  0.000000000E+00  0.000000000E+00 -8.170403372E+02  8.170403372E+02  0.000000000E+00  0.00000E+00  9.000E+00
      25     1     1     2     0     0 -3.841790318E+00  1.118180497E+00 -6.207352270E+02  6.332090534E+02  1.250018944E+02  0.00000E+00  9.000E+00
       5     1     1     2   501     0 -1.783276760E+00  2.092258037E+00 -2.043534741E+01  2.115947880E+01  4.750000000E+00  0.00000E+00  9.000E+00
      -5     1     1     2     0   503  3.315748348E+00 -2.732921314E+00 -1.902341580E+01  2.007276500E+01  4.750000000E+00  0.00000E+00  9.000E+00
      21     1     1     2   503   511  2.309318730E+00 -4.775172193E-01 -1.497134080E+02  1.497319789E+02  1.907348633E-06  0.00000E+00  9.000E+00
#rwgt            1           9   7.3963898033390452               12     2498380           0
</event>
<event>
      6   9999 -3.45752E-01  2.37266E+01 -1.00000E+00  1.54745E-01
      21    -1     0     0   501   502  0.000000000E+00  0.000000000E+00  9.571780760E+00  9.571780760E+00  0.000000000E+00  0.00000E+00  9.000E+00
       2    -1     0     0   502     0  0.000000000E+00  0.000000000E+00 -1.245544296E+03  1.245544296E+03  0.000000000E+00  0.00000E+00  9.000E+00
      25     1     1     2     0     0 -4.666790971E+00 -1.916022167E+01 -6.251750443E+02  6.378551561E+02  1.250058840E+02  0.00000E+00  9.000E+00
       5     1     1     2   501     0  2.275471420E+00 -1.789082628E+00 -3.309748831E+00  6.472675193E+00  4.750000000E+00  0.00000E+00  9.000E+00
      -5     1     1     2     0   503  2.207344620E+01  7.699240531E+00 -1.023375070E+02  1.050811266E+02  4.750000000E+00  0.00000E+00  9.000E+00
       2     1     1     2   503     0 -1.968212664E+01  1.325006377E+01 -5.051502146E+02  5.057071184E+02  7.629394531E-06  0.00000E+00  9.000E+00
#rwgt            1           9  -4.0619251274004808E-006          12     2504482           0
</event>
<event>
      6   9999  3.45752E-01  1.30028E+01 -1.00000E+00  1.75931E-01
      21    -1     0     0   501   511  0.000000000E+00  0.000000000E+00  3.111872823E+01  3.111872823E+01  0.000000000E+00  0.00000E+00  9.000E+00
      21    -1     0     0   502   503  0.000000000E+00  0.000000000E+00 -8.684747158E+02  8.684747158E+02  0.000000000E+00  0.00000E+00  9.000E+00
      25     1     1     2     0     0 -1.440771783E+01  7.142389735E+01 -5.512216317E+02  5.698939289E+02  1.249993903E+02  0.00000E+00  9.000E+00
       5     1     1     2   501     0 -2.942512358E-01  1.307804869E+00 -1.802225368E+00  5.254279555E+00  4.750000000E+00  0.00000E+00  9.000E+00
      -5     1     1     2     0   503  1.687304995E+01 -5.991144787E+01 -2.986501279E+02  3.051041508E+02  4.750000000E+00  0.00000E+00  9.000E+00
      21     1     1     2   502   511 -2.171080877E+00 -1.282025435E+01  1.431799736E+01  1.934108482E+01  1.192092896E-06  0.00000E+00  9.000E+00
#rwgt            1           9   1.4263690825898500E-004          12     2505815           0
</event>
<event>
      6   9999 -3.45752E-01  3.09525E+01 -1.00000E+00  1.46965E-01
      21    -1     0     0   501   502  0.000000000E+00  0.000000000E+00  4.038583747E+01  4.038583747E+01  0.000000000E+00  0.00000E+00  9.000E+00
      21    -1     0     0   512   503  0.000000000E+00  0.000000000E+00 -8.631748394E+02  8.631748394E+02  0.000000000E+00  0.00000E+00  9.000E+00
      25     1     1     2     0     0 -8.022576481E+01  5.622553863E+01 -4.967047428E+02  5.214751742E+02  1.249930847E+02  0.00000E+00  9.000E+00
       5     1     1     2   501     0 -5.177621064E+00 -6.417793246E+00  1.368359699E+01  1.666730802E+01  4.750000000E+00  0.00000E+00  9.000E+00
      -5     1     1     2     0   503  6.444304525E+01 -7.258313925E+01 -2.012542431E+02  2.234883690E+02  4.750000000E+00  0.00000E+00  9.000E+00
      21     1     1     2   512   502  2.096034063E+01  2.277539386E+01 -1.385136130E+02  1.419298257E+02  1.907348633E-06  0.00000E+00  9.000E+00
#rwgt            1           9  -2.3126159128376918E-003          12     2508196           0
</event>
<event>
      6   9999 -3.45752E-01  2.92791E+01 -1.00000E+00  1.48525E-01
      21    -1     0     0   501   511  0.000000000E+00  0.000000000E+00  1.269682909E+02  1.269682909E+02  0.000000000E+00  0.00000E+00  9.000E+00
      21    -1     0     0   502   503  0.000000000E+00  0.000000000E+00 -5.753626259E+02  5.753626259E+02  0.000000000E+00  0.00000E+00  9.000E+00
      25     1     1     2     0     0 -8.061106802E+01  1.256133031E+02 -4.269228140E+02  4.692169724E+02  1.249985275E+02  0.00000E+00  9.000E+00
       5     1     1     2   501     0 -2.538333059E+00 -1.430386798E-01  6.108129351E+01  6.131843533E+01  4.750000000E+00  0.00000E+00  9.000E+00
      -5     1     1     2     0   503  6.814414306E+01 -1.003284863E+02 -6.713542250E+01  1.387052877E+02  4.750000000E+00  0.00000E+00  9.000E+00
      21     1     1     2   502   511  1.500525802E+01 -2.514177811E+01 -1.541739199E+01  3.309022138E+01  2.384185791E-07  0.00000E+00  9.000E+00
#rwgt            1           9  -1.9580841065662363E-002          12     2509330           0
</event>
<event>
      6   9999  3.45752E-01  1.51535E+01 -1.00000E+00  1.69989E-01
      21    -1     0     0   512   502  0.000000000E+00  0.000000000E+00  1.492450639E+01  1.492450639E+01  0.000000000E+00  0.00000E+00  9.000E+00
      21    -1     0     0   502   503  0.000000000E+00  0.000000000E+00 -9.131271860E+02  9.131271860E+02  0.000000000E+00  0.00000E+00  9.000E+00
      25     1     1     2     0     0  3.276487103E+01 -2.587328552E+01 -6.853872505E+02  6.979428709E+02  1.250024170E+02  0.00000E+00  9.000E+00
       5     1     1     2   501     0 -5.210671716E+00  2.661906402E+01 -2.084789103E+01  3.453871349E+01  4.750000000E+00  0.00000E+00  9.000E+00
      -5     1     1     2     0   503 -1.478839495E+01 -8.910419612E+00 -1.476836411E+02  1.487652935E+02  4.750000000E+00  0.00000E+00  9.000E+00
      21     1     1     2   512   501 -1.276580436E+01  8.164641115E+00 -4.428389700E+01  4.680481448E+01  6.743495762E-07  0.00000E+00  9.000E+00
#rwgt            1           9   3.3900584013412581E-002          12     2511992           0
</event>
<event>
      6   9999  3.45752E-01  9.84118E+00 -1.00000E+00  1.87929E-01
      21    -1     0     0   501   502  0.000000000E+00  0.000000000E+00  2.264968815E+01  2.264968815E+01  0.000000000E+00  0.00000E+00  9.000E+00
      21    -1     0     0   502   511  0.000000000E+00  0.000000000E+00 -1.496323444E+03  1.496323444E+03  0.000000000E+00  0.00000E+00  9.000E+00
      25     1     1     2     0     0 -6.447869496E+01  1.504123599E+01 -3.565275620E+02  3.835650944E+02  1.250061530E+02  0.00000E+00  9.000E+00
       5     1     1     2   501     0 -2.353270767E+00  2.717863096E+00  6.761176745E+00  9.011141664E+00  4.750000000E+00  0.00000E+00  9.000E+00
      -5     1     1     2     0   503  5.699713539E+01 -1.811251066E+01 -7.628664542E+02  7.652218802E+02  4.750000000E+00  0.00000E+00  9.000E+00
      21     1     1     2   503   511  9.834830337E+00  3.534115775E-01 -3.610409167E+02  3.611750162E+02  3.814697266E-06  0.00000E+00  9.000E+00
#rwgt            1           9   2.0387204777803241E-002          12     2513789           0
</event>
<event>
      6   9999  3.45752E-01  1.09293E+01 -1.00000E+00  1.83218E-01
      21    -1     0     0   501   502  0.000000000E+00  0.000000000E+00  1.260346673E+01  1.260346673E+01  0.000000000E+00  0.00000E+00  9.000E+00
       1    -1     0     0   502     0  0.000000000E+00  0.000000000E+00 -1.312932663E+03  1.312932663E+03  0.000000000E+00  0.00000E+00  9.000E+00
      25     1     1     2     0     0 -3.052321919E+00 -8.545989006E+00 -8.240142323E+02  8.334909436E+02  1.250013902E+02  0.00000E+00  9.000E+00
       5     1     1     2   501     0 -4.245338159E+00 -2.173681453E+00  6.051408969E+00  9.051510242E+00  4.750000000E+00  0.00000E+00  9.000E+00
      -5     1     1     2     0   503 -1.354578709E+00  4.042296843E+00 -4.115745503E+01  4.164941358E+01  4.750000000E+00  0.00000E+00  9.000E+00
       1     1     1     2   503     0  8.652238786E+00  6.677373616E+00 -4.412089182E+02  4.413442625E+02  5.394796609E-06  0.00000E+00  9.000E+00
#rwgt            1           9   1.5007475996298176E-003          12     2517108           0
</event>
<event>
      6   9999  3.45752E-01  1.14766E+01 -1.00000E+00  1.81106E-01
      21    -1     0     0   501   502  0.000000000E+00  0.000000000E+00  3.887481050E+01  3.887481050E+01  0.000000000E+00  0.00000E+00  9.000E+00
      21    -1     0     0   511   503  0.000000000E+00  0.000000000E+00 -1.407103153E+03  1.407103153E+03  0.000000000E+00  0.00000E+00  9.000E+00
      25     1     1     2     0     0 -1.203139410E+02  5.096788730E+01 -5.958531011E+02  6.226852245E+02  1.249912029E+02  0.00000E+00  9.000E+00
       5     1     1     2   501     0  5.074509804E+00 -1.985199636E+00  1.702199023E+01  1.849330470E+01  4.750000000E+00  0.00000E+00  9.000E+00
      -5     1     1     2     0   503  1.267140285E+02 -4.919819697E+01 -6.074650234E+02  6.225056022E+02  4.750000000E+00  0.00000E+00  9.000E+00
      21     1     1     2   511   502 -1.147459722E+01  2.155092979E-01 -1.819322086E+02  1.822938324E+02  3.814697266E-06  0.00000E+00  9.000E+00
#rwgt            1           9   2.9699360647086259E-005          12     2519826           0
</event>
<event>
      6   9999 -3.45752E-01  2.30393E+01 -1.00000E+00  1.55658E-01
      21    -1     0     0   512   502  0.000000000E+00  0.000000000E+00  8.050035306E+00  8.050035306E+00  0.000000000E+00  0.00000E+00  9.000E+00
      21    -1     0     0   502   503  0.000000000E+00  0.000000000E+00 -9.789471969E+02  9.789471969E+02  0.000000000E+00  0.00000E+00  9.000E+00
      25     1     1     2     0     0 -8.135274976E+00 -2.129883871E+01 -8.937056192E+02  9.026927203E+02  1.249983612E+02  0.00000E+00  9.000E+00
       5     1     1     2   501     0 -1.801745831E-01 -1.654573556E+00 -1.005863343E+01  1.124760788E+01  4.750000000E+00  0.00000E+00  9.000E+00
      -5     1     1     2     0   503  2.817119198E+00  5.798365674E-01 -1.698706439E+01  1.787163192E+01  4.750000000E+00  0.00000E+00  9.000E+00
      21     1     1     2   512   501  5.498330361E+00  2.237357570E+01 -5.014584461E+01  5.518527211E+01  1.348699152E-06  0.00000E+00  9.000E+00
#rwgt            1           9  -3.2970152938774320E-005          12     2523010           0
</event>
<event>
      6   9999  3.45752E-01  8.75093E+00 -1.00000E+00  1.93511E-01
      21    -1     0     0   501   502  0.000000000E+00  0.000000000E+00  1.970383548E+01  1.970383548E+01  0.000000000E+00  0.00000E+00  9.000E+00
      21    -1     0     0   502   511  0.000000000E+00  0.000000000E+00 -1.391887841E+03  1.391887841E+03  0.000000000E+00  0.00000E+00  9.000E+00
      25     1     1     2     0     0  1.451510028E+01 -3.910440792E+01 -6.476046526E+02  6.608756136E+02  1.249997911E+02  0.00000E+00  9.000E+00
       5     1     1     2   501     0  4.348550382E+00  2.057395191E-01  1.115177856E+01  1.287932002E+01  4.750000000E+00  0.00000E+00  9.000E+00
      -5     1     1     2     0   503 -1.568327857E+01  3.074611923E+01 -2.997783549E+02  3.017961459E+02  4.750000000E+00  0.00000E+00  9.000E+00
      21     1     1     2   503   511 -3.180372094E+00  8.152549173E+00 -4.359527764E+02  4.360405968E+02  0.000000000E+00  0.00000E+00  9.000E+00
#rwgt            1           9   2.0147831578737645E-005          12     2524385           0
</event>
<event>
      6   9999 -3.45752E-01  3.76384E+01 -1.00000E+00  1.41736E-01
      21    -1     0     0   501   502  0.000000000E+00  0.000000000E+00  1.594640120E+03  1.594640120E+03  0.000000000E+00  0.00000E+00  9.000E+00
      21    -1     0     0   512   503  0.000000000E+00  0.000000000E+00 -1.437335382E+02  1.437335382E+02  0.000000000E+00  0.00000E+00  9.000E+00
      25     1     1     2     0     0  5.980527757E+01 -4.009768542E+01  1.079394227E+02  1.801722788E+02  1.250065417E+02  0.00000E+00  9.000E+00
       5     1     1     2   501     0  4.561154754E-01  6.988327271E+00  8.189234726E+02  8.189671918E+02  4.750000000E+00  0.00000E+00  9.000E+00
      -5     1     1     2     0   503 -3.333240153E+01  5.940535158E+01  6.264342871E+02  6.301448432E+02  4.750000000E+00  0.00000E+00  9.000E+00
      21     1     1     2   512   502 -2.692899151E+01 -2.629599343E+01 -1.023906009E+02  1.090893442E+02  1.907348633E-06  0.00000E+00  9.000E+00
#rwgt            1           9  -1.3673552589195173E-003          12     2527285           0
</event>
<event>
      6   9999  3.45752E-01  1.63758E+01 -1.00000E+00  1.67133E-01
      21    -1     0     0   501   511  0.000000000E+00  0.000000000E+00  1.674827056E+02  1.674827056E+02  0.000000000E+00  0.00000E+00  9.000E+00
      21    -1     0     0   502   503  0.000000000E+00  0.000000000E+00 -7.359633601E+02  7.359633601E+02  0.000000000E+00  0.00000E+00  9.000E+00
      25     1     1     2     0     0 -1.000658068E+01 -2.199434503E+01 -5.429958173E+02  5.577212866E+02  1.249987725E+02  0.00000E+00  9.000E+00
       5     1     1     2   501     0 -1.199049074E+00  1.374679678E+01 -1.368928823E+02  1.376685725E+02  4.750000000E+00  0.00000E+00  9.000E+00
      -5     1     1     2     0   503 -3.999003098E+00  2.165934260E+00 -4.767808239E+01  4.812946434E+01  4.750000000E+00  0.00000E+00  9.000E+00
      21     1     1     2   502   511  1.520463285E+01  6.081614000E+00  1.590861275E+02  1.599267422E+02  1.907348633E-06  0.00000E+00  9.000E+00
#rwgt            1           9   1.2708844137619476E-004          12     2529128           0
</event>
<event>
      6   9999  3.45752E-01  2.00486E+01 -1.00000E+00  1.60130E-01
      21    -1     0     0   501   502  0.000000000E+00  0.000000000E+00  3.476895331E+01  3.476895331E+01  0.000000000E+00  0.00000E+00  9.000E+00
      21    -1     0     0   502   512  0.000000000E+00  0.000000000E+00 -1.498282567E+03  1.498282567E+03  0.000000000E+00  0.00000E+00  9.000E+00
      25     1     1     2     0     0 -4.253895769E+01  6.569428573E+01 -2.346202768E+02  2.771296908E+02  1.250155556E+02  0.00000E+00  9.000E+00
       5     1     1     2   501     0 -4.099283359E-01  1.274592056E+00  1.167413681E+01  1.267440714E+01  4.750000000E+00  0.00000E+00  9.000E+00
      -5     1     1     2     0   503  2.670638644E+01 -5.521611902E+01 -9.237783870E+02  9.258245631E+02  4.750000000E+00  0.00000E+00  9.000E+00
      21     1     1     2   503   512  1.624249958E+01 -1.175275877E+01 -3.167890865E+02  3.174228590E+02  5.394796609E-06  0.00000E+00  9.000E+00
#rwgt            1           9   7.1523029266727114E-004          12     2530310           0
</event>
<event>
      6   9999  3.45752E-01  1.45533E+01 -1.00000E+00  1.71517E-01
      21    -1     0     0   502   503  0.000000000E+00  0.000000000E+00  1.026211558E+01  1.026211558E+01  0.000000000E+00  0.00000E+00  9.000E+00
      21    -1     0     0   501   511  0.000000000E+00  0.000000000E+00 -9.414033216E+02  9.414033216E+02  0.000000000E+00  0.00000E+00  9.000E+00
      25     1     1     2     0     0  8.004744093E+00 -2.293063912E+01 -4.243237967E+02  4.430186878E+02  1.249999326E+02  0.00000E+00  9.000E+00
       5     1     1     2   501     0 -3.753185152E+00  1.225423105E+01 -2.294742873E+02  2.298809770E+02  4.750000000E+00  0.00000E+00  9.000E+00
      -5     1     1     2     0   503 -1.041403127E+01 -2.507740611E+00 -7.606981475E+01  7.696700609E+01  4.750000000E+00  0.00000E+00  9.000E+00
      21     1     1     2   502   511  6.162472332E+00  1.318414868E+01 -2.012733073E+02  2.017987663E+02  4.672030912E-06  0.00000E+00  9.000E+00
#rwgt            1           9   2.6831472011008728               12     2532470           0
</event>
<event>
      6   9999  3.45752E-01  1.27883E+01 -1.00000E+00  1.76602E-01
      21    -1     0     0   501   502  0.000000000E+00  0.000000000E+00  5.682905066E+00  5.682905066E+00  0.000000000E+00  0.00000E+00  9.000E+00
       2    -1     0     0   502     0  0.000000000E+00  0.000000000E+00 -1.476924257E+03  1.476924257E+03  0.000000000E+00  0.00000E+00  9.000E+00
      25     1     1     2     0     0 -8.553787428E+00 -2.745216100E+00 -7.940255311E+02  8.038547158E+02  1.250006265E+02  0.00000E+00  9.000E+00
       5     1     1     2   501     0 -3.115841407E+00  3.130705260E+00 -2.356851923E+01  2.444478231E+01  4.750000000E+00  0.00000E+00  9.000E+00
      -5     1     1     2     0   503 -6.937452102E-01  2.883776608E+00 -2.935396643E+01  2.988336151E+01  4.750000000E+00  0.00000E+00  9.000E+00
       2     1     1     2   503     0  1.236337405E+01 -3.269265768E+00 -6.242933355E+02  6.244243028E+02  0.000000000E+00  0.00000E+00  9.000E+00
#rwgt            1           9  0.16026633921064068               12     2534247           0
</event>
<event>
      6   9999  3.45752E-01  6.39938E+00 -1.00000E+00  2.10232E-01
      21    -1     0     0   501   511  0.000000000E+00  0.000000000E+00  1.159556373E+02  1.159556373E+02  0.000000000E+00  0.00000E+00  9.000E+00
      21    -1     0     0   502   503  0.000000000E+00  0.000000000E+00 -7.318761497E+02  7.318761497E+02  0.000000000E+00  0.00000E+00  9.000E+00
      25     1     1     2     0     0 -2.336107910E+00 -9.909361904E+00 -7.041291108E+02  7.152105906E+02  1.249989254E+02  0.00000E+00  9.000E+00
       5     1     1     2   501     0  5.409015701E-01 -6.024984506E-01 -1.895509694E+00  5.177937417E+00  4.750000000E+00  0.00000E+00  9.000E+00
      -5     1     1     2     0   503  3.797006446E+00  4.433632156E+00 -1.781250782E+01  1.933707028E+01  4.750000000E+00  0.00000E+00  9.000E+00
      21     1     1     2   502   511 -2.001800106E+00  6.078228199E+00  1.079166159E+02  1.081061888E+02  3.814697266E-06  0.00000E+00  9.000E+00
#rwgt            1           9   8.1746018059704434E-005          12     2536023           0
</event>
<event>
      6   9999  3.45752E-01  1.11938E+01 -1.00000E+00  1.82178E-01
      21    -1     0     0   502   503  0.000000000E+00  0.000000000E+00  8.389772140E+00  8.389772140E+00  0.000000000E+00  0.00000E+00  9.000E+00
      21    -1     0     0   501   512  0.000000000E+00  0.000000000E+00 -1.532759381E+03  1.532759381E+03  0.000000000E+00  0.00000E+00  9.000E+00
      25     1     1     2     0     0 -1.500701930E+01 -1.823360943E+00 -6.296681449E+02  6.421331619E+02  1.249979582E+02  0.00000E+00  9.000E+00
       5     1     1     2   501     0  2.433135291E+01 -8.344495124E+00 -1.057606744E+02  1.089473638E+02  4.750000000E+00  0.00000E+00  9.000E+00
      -5     1     1     2     0   503  2.521299007E-01  4.371944661E+00 -1.942082851E+01  2.046725555E+01  4.750000000E+00  0.00000E+00  9.000E+00
      21     1     1     2   502   512 -9.576463502E+00  5.795911406E+00 -7.695199611E+02  7.696013720E+02  1.525878906E-05  0.00000E+00  9.000E+00
#rwgt            1           9  0.26343996035306444               12     2539165           0
</event>
<event>
      6   9999  3.45752E-01  1.84525E+01 -1.00000E+00  1.62927E-01
      21    -1     0     0   501   502  0.000000000E+00  0.000000000E+00  8.042056874E+00  8.042056874E+00  0.000000000E+00  0.00000E+00  9.000E+00
      21    -1     0     0   502   511  0.000000000E+00  0.000000000E+00 -1.922800484E+03  1.922800484E+03  0.000000000E+00  0.00000E+00  9.000E+00
      25     1     1     2     0     0  2.439016225E+01  1.356535944E+01 -6.314738075E+02  6.443311709E+02  1.249983571E+02  0.00000E+00  9.000E+00
       5     1     1     2   501     0 -1.813181491E-02  1.588980373E+00 -1.324179740E+01  1.415743218E+01  4.750000000E+00  0.00000E+00  9.000E+00
      -5     1     1     2     0   503 -2.312347990E+01  3.255830354E+00 -1.302609174E+02  1.324226750E+02  4.750000000E+00  0.00000E+00  9.000E+00
      21     1     1     2   503   511 -1.248550542E+00 -1.841017016E+01 -1.139781905E+03  1.139931263E+03  1.525878906E-05  0.00000E+00  9.000E+00
#rwgt            1           9   921.68046614357092               12     2541314           0
</event>
<event>
      6   9999  3.45752E-01  1.20944E+01 -1.00000E+00  1.78895E-01
      21    -1     0     0   501   512  0.000000000E+00  0.000000000E+00  5.536580914E+01  5.536580914E+01  0.000000000E+00  0.00000E+00  9.000E+00
      21    -1     0     0   502   503  0.000000000E+00  0.000000000E+00 -1.087381475E+03  1.087381475E+03  0.000000000E+00  0.00000E+00  9.000E+00
      25     1     1     2     0     0 -4.257121274E+01 -1.768151222E+01 -5.635458365E+02  5.790802302E+02  1.250002364E+02  0.00000E+00  9.000E+00
       5     1     1     2   501     0 -1.550505257E+00  3.748078836E+00  2.440062728E+01  2.518740306E+01  4.750000000E+00  0.00000E+00  9.000E+00
      -5     1     1     2     0   503  3.820945531E+01  3.382591435E+00 -5.132920964E+02  5.147453187E+02  4.750000000E+00  0.00000E+00  9.000E+00
      21     1     1     2   502   512  5.912262683E+00  1.055084195E+01  2.042164020E+01  2.373433177E+01  1.238859277E-06  0.00000E+00  9.000E+00
#rwgt            1           9  0.15457853972700661               12     2542426           0
</event>
<event>
      6   9999  3.45752E-01  4.09269E+01 -1.00000E+00  1.39611E-01
      21    -1     0     0   501   511  0.000000000E+00  0.000000000E+00  1.907235382E+01  1.907235382E+01  0.000000000E+00  0.00000E+00  9.000E+00
      21    -1     0     0   502   503  0.000000000E+00  0.000000000E+00 -1.426950681E+03  1.426950681E+03  0.000000000E+00  0.00000E+00  9.000E+00
      25     1     1     2     0     0  1.738071224E+01  1.952378304E+00 -4.538088848E+02  4.710351152E+02  1.250026995E+02  0.00000E+00  9.000E+00
       5     1     1     2   501     0  1.366696438E+00 -3.471441385E+00 -4.168170643E+00  7.338590529E+00  4.750000000E+00  0.00000E+00  9.000E+00
      -5     1     1     2     0   503  3.974127650E+00 -3.252127305E+01 -9.096280824E+02  9.102303212E+02  4.750000000E+00  0.00000E+00  9.000E+00
      21     1     1     2   502   511 -2.272153633E+01  3.404033613E+01 -4.027318967E+01  5.741900820E+01  1.168007728E-06  0.00000E+00  9.000E+00
#rwgt            1           9  0.33561023805007839               12     2545195           0
</event>
<event>
      6   9999  3.45752E-01  2.34871E+01 -1.00000E+00  1.55059E-01
      -2    -1     0     0     0   502  0.000000000E+00  0.000000000E+00  2.562989737E+02  2.562989737E+02  0.000000000E+00  0.00000E+00  9.000E+00
      21    -1     0     0   502   503  0.000000000E+00  0.000000000E+00 -1.666389996E+03  1.666389996E+03  0.000000000E+00  0.00000E+00  9.000E+00
      25     1     1     2     0     0 -8.306499428E+01  6.299397195E+01 -2.805200440E+02  3.243219452E+02  1.250007811E+02  0.00000E+00  9.000E+00
       5     1     1     2   501     0 -1.802836871E+00 -1.926080149E+01  7.370599414E+01  7.635027680E+01  4.750000000E+00  0.00000E+00  9.000E+00
      -5     1     1     2     0   503  9.548785343E+01 -6.468215336E+01 -1.359321883E+03  1.364214153E+03  4.750000000E+00  0.00000E+00  9.000E+00
      -2     1     1     2     0   501 -1.062002228E+01  2.094898291E+01  1.560449106E+02  1.578025947E+02  5.046370146E-06  0.00000E+00  9.000E+00
#rwgt            1           9   8.8378231194638458E-004          12     2545937           0
</event>
<event>
      6   9999  3.45752E-01  4.02195E+00 -1.00000E+00  2.47359E-01
      21    -1     0     0   501   502  0.000000000E+00  0.000000000E+00  1.638310226E+01  1.638310226E+01  0.000000000E+00  0.00000E+00  9.000E+00
       1    -1     0     0   502     0  0.000000000E+00  0.000000000E+00 -1.016879048E+03  1.016879048E+03  0.000000000E+00  0.00000E+00  9.000E+00
      25     1     1     2     0     0  9.368622185E-01 -1.576470520E+01 -3.436046608E+02  3.659753727E+02  1.249976274E+02  0.00000E+00  9.000E+00
       5     1     1     2   501     0  1.243954116E+00 -2.030989353E+00  3.630944852E+00  6.435728406E+00  4.750000000E+00  0.00000E+00  9.000E+00
      -5     1     1     2     0   503  1.375643935E+00  1.591749091E+01 -4.972099508E+02  4.974892528E+02  4.750000000E+00  0.00000E+00  9.000E+00
       1     1     1     2   503     0 -3.556460269E+00  1.878203645E+00 -1.633122789E+02  1.633617963E+02  1.907348633E-06  0.00000E+00  9.000E+00
#rwgt            1           9   3.2743419928245197E-003          12     2548775           0
</event>
<event>
      6   9999  3.45752E-01  1.57003E+01 -1.00000E+00  1.68672E-01
      21    -1     0     0   501   502  0.000000000E+00  0.000000000E+00  5.676468315E+01  5.676468315E+01  0.000000000E+00  0.00000E+00  9.000E+00
      21    -1     0     0   511   503  0.000000000E+00  0.000000000E+00 -4.623845878E+02  4.623845878E+02  0.000000000E+00  0.00000E+00  9.000E+00
      25     1     1     2     0     0 -5.181174905E+01 -6.432287679E+01 -2.292131188E+02  2.738344828E+02  1.249991212E+02  0.00000E+00  9.000E+00
       5     1     1     2   501     0  4.796819281E-02 -2.620457058E+00  2.475550343E+01  2.534297825E+01  4.750000000E+00  0.00000E+00  9.000E+00
      -5     1     1     2     0   503  3.737968603E+01  6.065080287E+01 -1.445612663E+02  1.612336287E+02  4.750000000E+00  0.00000E+00  9.000E+00
      21     1     1     2   511   502  1.438409482E+01  6.292530974E+00 -5.660102293E+01  5.873818116E+01  9.536743164E-07  0.00000E+00  9.000E+00
#rwgt            1           9   2.9636327587886420E-004          12     2553934           0
</event>
<event>
      6   9999 -3.45752E-01  6.28550E+00 -1.00000E+00  2.11284E-01
      21    -1     0     0   501   502  0.000000000E+00  0.000000000E+00  1.372060555E+01  1.372060555E+01  0.000000000E+00  0.00000E+00  9.000E+00
      21    -1     0     0   502   512  0.000000000E+00  0.000000000E+00 -1.696551638E+03  1.696551638E+03  0.000000000E+00  0.00000E+00  9.000E+00
      25     1     1     2     0     0 -1.014279751E+01  4.936177334E+01 -4.523905789E+02  4.720404014E+02  1.250017746E+02  0.00000E+00  9.000E+00
       5     1     1     2   501     0 -1.153557848E+00 -3.777006049E-01  3.576862049E-01  4.915668101E+00  4.750000000E+00  0.00000E+00  9.000E+00
      -5     1     1     2     0   503  7.042007492E+00 -4.435718623E+01 -4.076709297E+02  4.101649659E+02  4.750000000E+00  0.00000E+00  9.000E+00
      21     1     1     2   503   512  4.254347867E+00 -4.626886501E+00 -8.231272102E+02  8.231512083E+02  1.525878906E-05  0.00000E+00  9.000E+00
#rwgt            1           9  -6.4207477026832277E-003          12     2556324           0
</event>
<event>
      6   9999 -3.45752E-01  4.64725E+00 -1.00000E+00  2.35097E-01
      21    -1     0     0   511   502  0.000000000E+00  0.000000000E+00  1.715157898E+01  1.715157898E+01  0.000000000E+00  0.00000E+00  9.000E+00
      21    -1     0     0   502   503  0.000000000E+00  0.000000000E+00 -1.020914473E+03  1.020914473E+03  0.000000000E+00  0.00000E+00  9.000E+00
      25     1     1     2     0     0  8.637749235E+00 -1.336952642E+01 -9.267853981E+02  9.353126702E+02  1.250010475E+02  0.00000E+00  9.000E+00
       5     1     1     2   501     0  1.474839004E+00  3.498471183E+00  4.321324963E+00  7.459946390E+00  4.750000000E+00  0.00000E+00  9.000E+00
      -5     1     1     2     0   503 -1.110192733E+01  1.441177909E+01 -8.638289081E+01  8.840542117E+01  4.750000000E+00  0.00000E+00  9.000E+00
      21     1     1     2   511   501  9.893390908E-01 -4.540723849E+00  5.084070285E+00  6.888013906E+00  6.251387883E-07  0.00000E+00  9.000E+00
#rwgt            1           9  -3.8903364087886932E-005          12     2560056           0
</event>
<event>
      6   9999 -3.45752E-01  1.16475E+01 -1.00000E+00  1.80477E-01
      21    -1     0     0   501   502  0.000000000E+00  0.000000000E+00  3.720014216E+01  3.720014216E+01  0.000000000E+00  0.00000E+00  9.000E+00
       2    -1     0     0   502     0  0.000000000E+00  0.000000000E+00 -1.517494978E+03  1.517494978E+03  0.000000000E+00  0.00000E+00  9.000E+00
      25     1     1     2     0     0  2.827710792E+00  1.227842971E+00 -4.789513244E+02  4.950034108E+02  1.249980080E+02  0.00000E+00  9.000E+00
       5     1     1     2   501     0  2.290822975E+00 -4.365297935E+00  2.801025518E+01  2.883471157E+01  4.750000000E+00  0.00000E+00  9.000E+00
      -5     1     1     2     0   503 -9.679478268E-02 -7.371946958E+00 -2.607107668E+01  2.750669937E+01  4.750000000E+00  0.00000E+00  9.000E+00
       2     1     1     2   503     0 -5.021738984E+00  1.050940192E+01 -1.003282690E+03  1.003350299E+03  1.525878906E-05  0.00000E+00  9.000E+00
#rwgt            1           9  -2.0331057298793804               12     2564364           0
</event>
<event>
      6   9999 -3.45752E-01  2.58866E+01 -1.00000E+00  1.52104E-01
      21    -1     0     0   501   511  0.000000000E+00  0.000000000E+00  5.904938274E+01  5.904938274E+01  0.000000000E+00  0.00000E+00  9.000E+00
      21    -1     0     0   502   503  0.000000000E+00  0.000000000E+00 -1.068146048E+03  1.068146048E+03  0.000000000E+00  0.00000E+00  9.000E+00
      25     1     1     2     0     0 -9.330194624E+00  6.201174518E-01 -9.144599360E+02  9.230107764E+02  1.249979272E+02  0.00000E+00  9.000E+00
       5     1     1     2   501     0 -3.977016038E+00 -6.221936323E-01  2.002013050E+01  2.096597020E+01  4.750000000E+00  0.00000E+00  9.000E+00
      -5     1     1     2     0   503 -1.257854789E+01 -2.013548176E-01 -1.436917601E+02  1.443195927E+02  4.750000000E+00  0.00000E+00  9.000E+00
      21     1     1     2   502   511  2.588575855E+01  2.034309981E-01  2.903490031E+01  3.889909145E+01  1.994752947E-06  0.00000E+00  9.000E+00
#rwgt            1           9  -4.1704401562649970E-004          12     2566812           0
</event>
<event>
      6   9999  3.45752E-01  3.03266E+01 -1.00000E+00  1.47534E-01
      21    -1     0     0   512   502  0.000000000E+00  0.000000000E+00  1.321534223E+02  1.321534223E+02  0.000000000E+00  0.00000E+00  9.000E+00
      21    -1     0     0   502   503  0.000000000E+00  0.000000000E+00 -6.612519901E+02  6.612519901E+02  0.000000000E+00  0.00000E+00  9.000E+00
      25     1     1     2     0     0  7.004015694E+01 -1.847481432E+01 -3.034451976E+02  3.360813321E+02  1.249989259E+02  0.00000E+00  9.000E+00
       5     1     1     2   501     0  8.427122966E+00  9.566570994E+00 -1.409322110E+01  1.958869733E+01  4.750000000E+00  0.00000E+00  9.000E+00
      -5     1     1     2     0   503 -4.906291355E+01  1.633011869E+01 -3.204865861E+02  3.246660694E+02  4.750000000E+00  0.00000E+00  9.000E+00
      21     1     1     2   512   501 -2.940436635E+01 -7.421875368E+00  1.089264370E+02  1.130693135E+02  2.697398305E-06  0.00000E+00  9.000E+00
#rwgt            1           9  0.21150516784188747               12     2569054           0
</event>
<event>
      6   9999  3.45752E-01  2.88733E+01 -1.00000E+00  1.48921E-01
      21    -1     0     0   511   502  0.000000000E+00  0.000000000E+00  1.976288457E+01  1.976288457E+01  0.000000000E+00  0.00000E+00  9.000E+00
      21    -1     0     0   502   503  0.000000000E+00  0.000000000E+00 -1.035747122E+03  1.035747122E+03  0.000000000E+00  0.00000E+00  9.000E+00
      25     1     1     2     0     0 -1.073588178E+01 -9.536734396E+00 -2.333227135E+02  2.650863749E+02  1.250003562E+02  0.00000E+00  9.000E+00
       5     1     1     2   501     0 -1.244147403E+01 -4.069546084E+00 -3.199553321E+02  3.202582216E+02  4.750000000E+00  0.00000E+00  9.000E+00
      -5     1     1     2     0   503  1.778640668E+01  4.197185966E+01 -3.758893597E+02  3.786731658E+02  4.750000000E+00  0.00000E+00  9.000E+00
      21     1     1     2   511   501  5.390949125E+00 -2.836557918E+01 -8.681683207E+01  9.149224419E+01  0.000000000E+00  0.00000E+00  9.000E+00
#rwgt            1           9   8.5510340820524019E-004          12     2570470           0
</event>
<event>
      6   9999  3.45752E-01  5.51997E+00 -1.00000E+00  2.19230E-01
      21    -1     0     0   501   512  0.000000000E+00  0.000000000E+00  5.474274428E+01  5.474274428E+01  0.000000000E+00  0.00000E+00  9.000E+00
      21    -1     0     0   502   503  0.000000000E+00  0.000000000E+00 -1.765094786E+02  1.765094786E+02  0.000000000E+00  0.00000E+00  9.000E+00
      25     1     1     2     0     0  1.137451008E+01  1.726791945E+01 -1.378202640E+02  1.872064528E+02  1.249970810E+02  0.00000E+00  9.000E+00
       5     1     1     2   501     0  5.380656451E-01 -3.527946778E-01  1.576546055E+01  1.647805283E+01  4.750000000E+00  0.00000E+00  9.000E+00
      -5     1     1     2     0   503 -1.649240432E+01 -1.383368580E+01  8.609017322E-02  2.204405078E+01  4.750000000E+00  0.00000E+00  9.000E+00
      21     1     1     2   502   512  4.579828594E+00 -3.081438974E+00  2.019789404E-01  5.523666499E+00  1.515740008E-07  0.00000E+00  9.000E+00
#rwgt            1           9   1.6889367599225963E-002          12     2571702           0
</event>
<event>
      6   9999 -3.45752E-01  4.54457E+00 -1.00000E+00  2.36909E-01
      21    -1     0     0   501   502  0.000000000E+00  0.000000000E+00  1.019400631E+01  1.019400631E+01  0.000000000E+00  0.00000E+00  9.000E+00
       2    -1     0     0   502     0  0.000000000E+00  0.000000000E+00 -1.773300785E+03  1.773300785E+03  0.000000000E+00  0.00000E+00  9.000E+00
      25     1     1     2     0     0 -4.597667073E+00 -2.807587798E+00 -7.475090100E+02  7.579085655E+02  1.250066100E+02  0.00000E+00  9.000E+00
       5     1     1     2   501     0 -1.446818592E+00  2.065687809E+00  3.242402746E+00  6.279810963E+00  4.750000000E+00  0.00000E+00  9.000E+00
      -5     1     1     2     0   503  1.507465969E+00  4.800195754E-01 -2.726634906E+01  2.772217819E+01  4.750000000E+00  0.00000E+00  9.000E+00
       2     1     1     2   503     0  4.537019696E+00  2.618804133E-01 -9.915738224E+02  9.915842366E+02  1.078959322E-05  0.00000E+00  9.000E+00
#rwgt            1           9  -1.7251859899553704E-005          12     2575305           0
</event>
<event>
      6   9999  3.45752E-01  5.95754E+00 -1.00000E+00  2.14488E-01
      21    -1     0     0   501   502  0.000000000E+00  0.000000000E+00  6.162161874E+00  6.162161874E+00  0.000000000E+00  0.00000E+00  9.000E+00
      21    -1     0     0   511   503  0.000000000E+00  0.000000000E+00 -1.837861798E+03  1.837861798E+03  0.000000000E+00  0.00000E+00  9.000E+00
      25     1     1     2     0     0 -1.166499070E+01  6.968868834E+00 -1.298834988E+03  1.304906696E+03  1.249980890E+02  0.00000E+00  9.000E+00
       5     1     1     2   501     0  2.514799295E+00 -9.544416101E+00 -7.061622246E+00  1.303261689E+01  4.750000000E+00  0.00000E+00  9.000E+00
      -5     1     1     2     0   503  3.370944590E+00  1.128967727E+00 -7.246355322E+01  7.270603057E+01  4.750000000E+00  0.00000E+00  9.000E+00
      21     1     1     2   511   502  5.779246819E+00  1.446579541E+00 -4.533394725E+02  4.533786162E+02  5.394796609E-06  0.00000E+00  9.000E+00
#rwgt            1           9  0.96767191500757255               12     2579471           0
</event>
<event>
      6   9999 -3.45752E-01  6.52600E+00 -1.00000E+00  2.09097E-01
      21    -1     0     0   512   502  0.000000000E+00  0.000000000E+00  1.490221953E+02  1.490221953E+02  0.000000000E+00  0.00000E+00  9.000E+00
      21    -1     0     0   502   503  0.000000000E+00  0.000000000E+00 -2.379552424E+02  2.379552424E+02  0.000000000E+00  0.00000E+00  9.000E+00
      25     1     1     2     0     0  2.165622524E+00 -3.963701984E+00 -1.353169612E+02  1.842725833E+02  1.250012165E+02  0.00000E+00  9.000E+00
       5     1     1     2   501     0  1.553345186E+00 -1.288026497E-01  5.977728764E+00  7.792638357E+00  4.750000000E+00  0.00000E+00  9.000E+00
      -5     1     1     2     0   503  2.701169800E+00  5.263204304E+00 -7.697588977E+01  7.734887034E+01  4.750000000E+00  0.00000E+00  9.000E+00
      21     1     1     2   512   501 -6.420137510E+00 -1.170699671E+00  1.173820751E+02  1.175633457E+02  1.348699152E-06  0.00000E+00  9.000E+00
#rwgt            1           9 -0.27115048026296046               12     2582810           0
</event>
<event>
      6   9999  3.45752E-01  8.63883E+00 -1.00000E+00  1.94145E-01
      21    -1     0     0   501   502  0.000000000E+00  0.000000000E+00  1.080363591E+01  1.080363591E+01  0.000000000E+00  0.00000E+00  9.000E+00
      21    -1     0     0   502   511  0.000000000E+00  0.000000000E+00 -8.365601639E+02  8.365601639E+02  0.000000000E+00  0.00000E+00  9.000E+00
      25     1     1     2     0     0 -1.447253856E+00 -3.625955713E+00 -7.326936839E+02  7.432928910E+02  1.250161798E+02  0.00000E+00  9.000E+00
       5     1     1     2   501     0 -1.228709602E+00 -3.489500200E+00  3.212621297E+00  6.824205048E+00  4.750000000E+00  0.00000E+00  9.000E+00
      -5     1     1     2     0   503 -8.241822352E-01 -7.825378940E-01 -2.743993409E+01  2.787120601E+01  4.750000000E+00  0.00000E+00  9.000E+00
      21     1     1     2   503   511  3.500145693E+00  7.897993807E+00 -6.883553130E+01  6.937549781E+01  0.000000000E+00  0.00000E+00  9.000E+00
#rwgt            1           9   7.8206024977225226E-004          12     2586057           0
</event>
<event>
      6   9999  3.45752E-01  1.13714E+01 -1.00000E+00  1.81500E-01
      21    -1     0     0   512   502  0.000000000E+00  0.000000000E+00  1.603025336E+02  1.603025336E+02  0.000000000E+00  0.00000E+00  9.000E+00
      21    -1     0     0   502   503  0.000000000E+00  0.000000000E+00 -9.955635476E+02  9.955635476E+02  0.000000000E+00  0.00000E+00  9.000E+00
      25     1     1     2     0     0  1.248353899E+02  1.083978791E+02 -7.495031650E+02  7.776340645E+02  1.250030767E+02  0.00000E+00  9.000E+00
       5     1     1     2   501     0  1.670983527E+00 -1.369762246E+00  7.271064735E+00  8.949822174E+00  4.750000000E+00  0.00000E+00  9.000E+00
      -5     1     1     2     0   503 -1.270894095E+02 -1.183845526E+02 -1.981552856E+02  2.635425962E+02  4.750000000E+00  0.00000E+00  9.000E+00
      21     1     1     2   512   501  5.830360595E-01  1.135643565E+01  1.051263720E+02  1.057395983E+02  1.348699152E-06  0.00000E+00  9.000E+00
#rwgt            1           9   8.7039512542929839E-004          12     2588972           0
</event>
<event>
      6   9999  3.45752E-01  3.78751E+00 -1.00000E+00  2.52861E-01
      21    -1     0     0   501   511  0.000000000E+00  0.000000000E+00  1.265997503E+01  1.265997503E+01  0.000000000E+00  0.00000E+00  9.000E+00
      21    -1     0     0   502   503  0.000000000E+00  0.000000000E+00 -4.180301830E+03  4.180301830E+03  0.000000000E+00  0.00000E+00  9.000E+00
      25     1     1     2     0     0 -4.072882390E+00  1.931682392E+00 -3.970604644E+03  3.972574334E+03  1.250011332E+02  0.00000E+00  9.000E+00
       5     1     1     2   501     0  2.506700954E+00  1.778732990E+00 -1.984906574E+00  5.995814776E+00  4.750000000E+00  0.00000E+00  9.000E+00
      -5     1     1     2     0   503 -1.935366149E+00 -2.266677905E+00 -2.043111465E+02  2.043880881E+02  4.750000000E+00  0.00000E+00  9.000E+00
      21     1     1     2   502   511  3.501547585E+00 -1.443737477E+00  9.258842056E+00  1.000356784E+01  1.255947799E-06  0.00000E+00  9.000E+00
#rwgt            1           9   8.7339525915606771E-005          12     2592310           0
</event>
<event>
      6   9999  3.45752E-01  2.64648E+01 -1.00000E+00  1.51449E-01
      21    -1     0     0   501   502  0.000000000E+00  0.000000000E+00  6.627541407E+01  6.627541407E+01  0.000000000E+00  0.00000E+00  9.000E+00
      21    -1     0     0   502   512  0.000000000E+00  0.000000000E+00 -1.630490977E+03  1.630490977E+03  0.000000000E+00  0.00000E+00  9.000E+00
      25     1     1     2     0     0  1.103774826E+01 -2.651316014E+01 -1.309798940E+03  1.316063154E+03  1.249967309E+02  0.00000E+00  9.000E+00
       5     1     1     2   501     0 -2.873042894E+00  1.990750295E+00  6.195717857E+01  6.223722309E+01  4.750000000E+00  0.00000E+00  9.000E+00
      -5     1     1     2     0   503 -7.820662069E+00 -1.940121470E+00 -1.111473668E+02  1.115402460E+02  4.750000000E+00  0.00000E+00  9.000E+00
      21     1     1     2   503   512 -3.440432940E-01  2.646253131E+01 -2.052264349E+02  2.069257681E+02  2.697398305E-06  0.00000E+00  9.000E+00
#rwgt            1           9   1.7504209626584806E-004          12     2598501           0
</event>
<event>
      6   9999  3.45752E-01  1.52077E+01 -1.00000E+00  1.69855E-01
      21    -1     0     0   501   502  0.000000000E+00  0.000000000E+00  1.587849654E+01  1.587849654E+01  0.000000000E+00  0.00000E+00  9.000E+00
      21    -1     0     0   502   511  0.000000000E+00  0.000000000E+00 -1.389673045E+03  1.389673045E+03  0.000000000E+00  0.00000E+00  9.000E+00
      25     1     1     2     0     0 -6.060110324E+00  6.460588136E+00 -8.712362126E+02  8.802020740E+02  1.249987551E+02  0.00000E+00  9.000E+00
       5     1     1     2   501     0 -3.151511695E+00  4.689259454E+00  9.667207621E+00  1.216300059E+01  4.750000000E+00  0.00000E+00  9.000E+00
      -5     1     1     2     0   503  4.276416890E+00  3.234792542E+00 -3.535015064E+01  3.606864669E+01  4.750000000E+00  0.00000E+00  9.000E+00
      21     1     1     2   503   511  4.935205130E+00 -1.438464013E+01 -4.768753924E+02  4.771178198E+02  5.394796609E-06  0.00000E+00  9.000E+00
#rwgt            1           9   2.2115783609896662E-003          12     2600677           0
</event>
<event>
      6   9999 -3.45752E-01  3.05673E+01 -1.00000E+00  1.47314E-01
      21    -1     0     0   501   502  0.000000000E+00  0.000000000E+00  9.670589565E+01  9.670589565E+01  0.000000000E+00  0.00000E+00  9.000E+00
      21    -1     0     0   502   512  0.000000000E+00  0.000000000E+00 -9.083157219E+02  9.083157219E+02  0.000000000E+00  0.00000E+00  9.000E+00
      25     1     1     2     0     0 -6.700778358E+00 -2.401757355E+01  1.156252558E+01  1.280096924E+02  1.250241780E+02  0.00000E+00  9.000E+00
       5     1     1     2   501     0 -1.821132310E+00 -2.609658192E+00  2.221695723E+01  2.294084844E+01  4.750000000E+00  0.00000E+00  9.000E+00
      -5     1     1     2     0   503 -3.045397178E+00 -1.666854120E+00  1.936584419E+00  6.194005638E+00  4.750000000E+00  0.00000E+00  9.000E+00
      21     1     1     2   503   512  1.156730785E+01  2.829408586E+01 -8.473258935E+02  8.478770711E+02  1.078959322E-05  0.00000E+00  9.000E+00
#rwgt            1           9  -5.7205224021016634E-005          12     2602849           0
</event>
<event>
      6   9999 -3.45752E-01  7.96361E+01 -1.00000E+00  1.24793E-01
      21    -1     0     0   511   502  0.000000000E+00  0.000000000E+00  2.594465501E+01  2.594465501E+01  0.000000000E+00  0.00000E+00  9.000E+00
      21    -1     0     0   502   503  0.000000000E+00  0.000000000E+00 -1.116074969E+03  1.116074969E+03  0.000000000E+00  0.00000E+00  9.000E+00
      25     1     1     2     0     0 -1.553726855E+01 -8.327279104E+01 -9.391926447E+02  9.512536505E+02  1.249996772E+02  0.00000E+00  9.000E+00
       5     1     1     2   501     0 -8.952832513E-01 -1.544774836E+00  5.919362684E+00  7.796743935E+00  4.750000000E+00  0.00000E+00  9.000E+00
      -5     1     1     2     0   503  7.191585347E+00  5.719430811E+00 -4.980235889E+00  1.148024556E+01  4.750000000E+00  0.00000E+00  9.000E+00
      21     1     1     2   511   501  9.240966451E+00  7.909813506E+01 -1.518767956E+02  1.714889835E+02  0.000000000E+00  0.00000E+00  9.000E+00
#rwgt            1           9  -7.5638558987738320E-004          12     2604593           0
</event>
<event>
      6   9999  3.45752E-01  1.11349E+01 -1.00000E+00  1.82407E-01
      21    -1     0     0   501   502  0.000000000E+00  0.000000000E+00  1.972104219E+01  1.972104219E+01  0.000000000E+00  0.00000E+00  9.000E+00
      -1    -1     0     0     0   503  0.000000000E+00  0.000000000E+00 -1.793251768E+03  1.793251768E+03  0.000000000E+00  0.00000E+00  9.000E+00
      25     1     1     2     0     0  4.345256176E+00  3.740272288E+00 -9.898196031E+02  9.976979906E+02  1.250022515E+02  0.00000E+00  9.000E+00
       5     1     1     2   501     0  9.157095400E+00 -3.503408731E+00  1.348639367E+01  1.733700041E+01  4.750000000E+00  0.00000E+00  9.000E+00
      -5     1     1     2     0   503 -5.112659402E+00 -7.557950504E+00 -8.060361576E+01  8.125741367E+01  4.750000000E+00  0.00000E+00  9.000E+00
      -1     1     1     2     0   502 -8.389692175E+00  7.321086947E+00 -7.165939007E+02  7.166804056E+02  0.000000000E+00  0.00000E+00  9.000E+00
#rwgt            1           9   2.5769328707869834E-003          12     2605175           0
</event>
<event>
      6   9999  3.45752E-01  1.23889E+01 -1.00000E+00  1.77899E-01
      21    -1     0     0   511   502  0.000000000E+00  0.000000000E+00  5.028739498E+02  5.028739498E+02  0.000000000E+00  0.00000E+00  9.000E+00
      21    -1     0     0   502   503  0.000000000E+00  0.000000000E+00 -1.061209081E+03  1.061209081E+03  0.000000000E+00  0.00000E+00  9.000E+00
      25     1     1     2     0     0 -1.029367410E+02  8.077311154E+01 -5.128421721E+02  5.438312248E+02  1.250001576E+02  0.00000E+00  9.000E+00
       5     1     1     2   501     0  6.240955099E+01 -2.920276328E+01 -1.664210304E+02  1.801840040E+02  4.750000000E+00  0.00000E+00  9.000E+00
      -5     1     1     2     0   503  4.639150439E+01 -4.065733213E+01 -3.568276278E+02  3.621514998E+02  4.750000000E+00  0.00000E+00  9.000E+00
      21     1     1     2   511   501 -5.864314365E+00 -1.091301614E+01  4.777556990E+02  4.779163023E+02  5.394796609E-06  0.00000E+00  9.000E+00
#rwgt            1           9   9.6519530978241633E-003          12     2607941           0
</event>
<event>
      6   9999  3.45752E-01  1.42147E+01 -1.00000E+00  1.72420E-01
      21    -1     0     0   501   502  0.000000000E+00  0.000000000E+00  6.317074827E+02  6.317074827E+02  0.000000000E+00  0.00000E+00  9.000E+00
      21    -1     0     0   512   503  0.000000000E+00  0.000000000E+00 -6.236903145E+02  6.236903145E+02  0.000000000E+00  0.00000E+00  9.000E+00
      25     1     1     2     0     0 -9.120361697E+01 -1.382125592E+02  2.692003451E+01  2.092149470E+02  1.250015780E+02  0.00000E+00  9.000E+00
       5     1     1     2   501     0  3.728982491E+00  2.358685427E+00  4.046960542E+02  4.047479802E+02  4.750000000E+00  0.00000E+00  9.000E+00
      -5     1     1     2     0   503  8.078105415E+01  1.483939659E+02  4.317020344E+01  1.744493531E+02  4.750000000E+00  0.00000E+00  9.000E+00
      21     1     1     2   512   502  6.693580328E+00 -1.254009206E+01 -4.667691240E+02  4.669855169E+02  5.394796609E-06  0.00000E+00  9.000E+00
#rwgt            1           9   1.8030138032750852E-002          12     2610619           0
</event>
<event>
      6   9999 -3.45752E-01  2.52552E+01 -1.00000E+00  1.52843E-01
      21    -1     0     0   501   511  0.000000000E+00  0.000000000E+00  8.707392791E+00  8.707392791E+00  0.000000000E+00  0.00000E+00  9.000E+00
      21    -1     0     0   502   503  0.000000000E+00  0.000000000E+00 -1.746827441E+03  1.746827441E+03  0.000000000E+00  0.00000E+00  9.000E+00
      25     1     1     2     0     0  4.041283729E+01 -8.534047232E+00 -1.521577905E+03  1.527262438E+03  1.250008286E+02  0.00000E+00  9.000E+00
       5     1     1     2   501     0  3.820072427E+00  1.502373071E+00  4.879507872E-02  6.278133413E+00  4.750000000E+00  0.00000E+00  9.000E+00
      -5     1     1     2     0   503 -1.905931856E+01  5.003527481E+00 -5.881474213E+01  6.220955957E+01  4.750000000E+00  0.00000E+00  9.000E+00
      21     1     1     2   502   511 -2.517359116E+01  2.028146679E+00 -1.577761961E+02  1.597847024E+02  0.000000000E+00  0.00000E+00  9.000E+00
#rwgt            1           9  -8.0153230993205364E-004          12     2614150           0
</event>
<event>
      6   9999  3.45752E-01  1.35532E+01 -1.00000E+00  1.74279E-01
      21    -1     0     0   501   502  0.000000000E+00  0.000000000E+00  2.672238539E+01  2.672238539E+01  0.000000000E+00  0.00000E+00  9.000E+00
      21    -1     0     0   502   512  0.000000000E+00  0.000000000E+00 -6.559081352E+02  6.559081352E+02  0.000000000E+00  0.00000E+00  9.000E+00
      25     1     1     2     0     0 -1.012530120E+01  1.061022155E+01 -5.194684598E+02  5.344967519E+02  1.249967941E+02  0.00000E+00  9.000E+00
       5     1     1     2   501     0  2.199309767E-02  4.574479019E+00  1.714898639E+01  1.837325710E+01  4.750000000E+00  0.00000E+00  9.000E+00
      -5     1     1     2     0   503  1.450224295E+00 -4.753313239E+00 -1.014394530E+01  1.225394889E+01  4.750000000E+00  0.00000E+00  9.000E+00
      21     1     1     2   503   512  8.653083806E+00 -1.043138733E+01 -1.167223311E+02  1.175065627E+02  2.336015456E-06  0.00000E+00  9.000E+00
#rwgt            1           9   1.6481143263661266E-003          12     2615705           0
</event>
<event>
      6   9999  3.45752E-01  4.26074E+00 -1.00000E+00  2.42307E-01
      21    -1     0     0   502   503  0.000000000E+00  0.000000000E+00  1.817778307E+03  1.817778307E+03  0.000000000E+00  0.00000E+00  9.000E+00
      21    -1     0     0   501   511  0.000000000E+00  0.000000000E+00 -1.183598858E+02  1.183598858E+02  0.000000000E+00  0.00000E+00  9.000E+00
      25     1     1     2     0     0 -1.031564916E+01 -2.268119132E+01  1.697356977E+03  1.702135276E+03  1.249917592E+02  0.00000E+00  9.000E+00
       5     1     1     2   501     0  3.664585926E+00  1.933616308E+01  1.004346141E+02  1.024548222E+02  4.750000000E+00  0.00000E+00  9.000E+00
      -5     1     1     2     0   503  3.390659110E+00  6.020908535E-01  1.602777147E+01  1.706783644E+01  4.750000000E+00  0.00000E+00  9.000E+00
      21     1     1     2   502   511  3.260404120E+00  2.742937386E+00 -1.144009419E+02  1.144802579E+02  5.046370146E-06  0.00000E+00  9.000E+00
#rwgt            1           9  0.24161754001818392               12     2618269           0
</event>
<event>
      6   9999 -3.45752E-01  2.05358E+00 -1.00000E+00  3.28507E-01
      21    -1     0     0   501   512  0.000000000E+00  0.000000000E+00  1.871995747E+02  1.871995747E+02  0.000000000E+00  0.00000E+00  9.000E+00
      21    -1     0     0   502   503  0.000000000E+00  0.000000000E+00 -2.805534066E+03  2.805534066E+03  0.000000000E+00  0.00000E+00  9.000E+00
      25     1     1     2     0     0 -1.464780866E+01 -2.432741169E+01 -2.256604585E+03  2.260242546E+03  1.250029285E+02  0.00000E+00  9.000E+00
       5     1     1     2   501     0  7.480155334E-01 -1.946226986E-01 -5.747460422E+01  5.767573177E+01  4.750000000E+00  0.00000E+00  9.000E+00
      -5     1     1     2     0   503  1.595330488E+01  2.450575123E+01 -4.890814422E+02  4.899778151E+02  4.750000000E+00  0.00000E+00  9.000E+00
      21     1     1     2   502   512 -2.053511747E+00  1.628316537E-02  1.848261399E+02  1.848375480E+02  8.529922400E-06  0.00000E+00  9.000E+00
#rwgt            1           9  -4.2771901087613109E-003          12     2622771           0
</event>
<event>
      6   9999  3.45752E-01  9.87043E+00 -1.00000E+00  1.87792E-01
       2    -1     0     0   501     0  0.000000000E+00  0.000000000E+00  3.937543156E+02  3.937543156E+02  0.000000000E+00  0.00000E+00  9.000E+00
      21    -1     0     0   502   503  0.000000000E+00  0.000000000E+00 -1.499777060E+03  1.499777060E+03  0.000000000E+00  0.00000E+00  9.000E+00
      25     1     1     2     0     0  9.011779256E+00 -1.431140232E+02 -3.161752278E+02  3.689923315E+02  1.250029209E+02  0.00000E+00  9.000E+00
       5     1     1     2   501     0 -1.107185610E+01 -3.941617979E+00  3.337102641E+01  3.569748245E+01  4.750000000E+00  0.00000E+00  9.000E+00
      -5     1     1     2     0   503 -7.274697978E+00  1.502630278E+02 -1.151056267E+03  1.160855284E+03  4.750000000E+00  0.00000E+00  9.000E+00
       2     1     1     2   502     0  9.334774822E+00 -3.207386635E+00  3.278377237E+02  3.279862778E+02  5.394796609E-06  0.00000E+00  9.000E+00
#rwgt            1           9  0.91041113831011222               12     2630005           0
</event>
<event>
      6   9999  3.45752E-01  7.98671E+00 -1.00000E+00  1.98101E-01
      21    -1     0     0   501   511  0.000000000E+00  0.000000000E+00  9.686398660E+01  9.686398660E+01  0.000000000E+00  0.00000E+00  9.000E+00
      21    -1     0     0   502   503  0.000000000E+00  0.000000000E+00 -1.641883497E+03  1.641883497E+03  0.000000000E+00  0.00000E+00  9.000E+00
      25     1     1     2     0     0  1.088620294E+01 -6.850228987E-01 -1.492587635E+03  1.497852575E+03  1.250020470E+02  0.00000E+00  9.000E+00
       5     1     1     2   501     0 -4.105562720E+00  2.512817986E+00  1.282162730E+01  1.449574165E+01  4.750000000E+00  0.00000E+00  9.000E+00
      -5     1     1     2     0   503  6.553642627E-01  1.086554545E+00 -1.455868167E+02  1.456698108E+02  4.750000000E+00  0.00000E+00  9.000E+00
      21     1     1     2   502   511 -7.436004482E+00 -2.914349632E+00  8.033331364E+01  8.072935573E+01  2.697398305E-06  0.00000E+00  9.000E+00
#rwgt            1           9   2.4014736404515507               12     2634700           0
</event>
<event>
      6   9999  3.45752E-01  9.06543E+00 -1.00000E+00  1.91797E-01
      21    -1     0     0   512   502  0.000000000E+00  0.000000000E+00  1.282495846E+01  1.282495846E+01  0.000000000E+00  0.00000E+00  9.000E+00
      21    -1     0     0   502   503  0.000000000E+00  0.000000000E+00 -7.868589353E+02  7.868589353E+02  0.000000000E+00  0.00000E+00  9.000E+00
      25     1     1     2     0     0 -1.138069324E+01  1.049673794E+01 -6.589983086E+02  6.709260824E+02  1.249933426E+02  0.00000E+00  9.000E+00
       5     1     1     2   501     0 -8.621414216E-01  7.783150575E-01  2.143027017E+00  5.338925637E+00  4.750000000E+00  0.00000E+00  9.000E+00
      -5     1     1     2     0   503  4.261138818E+00 -1.557325643E+01 -1.114092097E+02  1.126732361E+02  4.750000000E+00  0.00000E+00  9.000E+00
      21     1     1     2   512   501  7.981695839E+00  4.298203437E+00 -5.769485527E+00  1.074564956E+01  1.884864366E-07  0.00000E+00  9.000E+00
#rwgt            1           9   1.3261689658326495E-003          12     2638486           0
</event>
<event>
      6   9999  3.45752E-01  4.11853E+01 -1.00000E+00  1.39454E-01
      21    -1     0     0   501   502  0.000000000E+00  0.000000000E+00  2.480837713E+03  2.480837713E+03  0.000000000E+00  0.00000E+00  9.000E+00
      21    -1     0     0   502   511  0.000000000E+00  0.000000000E+00 -1.399857888E+01  1.399857888E+01  0.000000000E+00  0.00000E+00  9.000E+00
      25     1     1     2     0     0  1.527687061E+01  7.272696985E+01  1.433424773E+03  1.440782415E+03  1.249991705E+02  0.00000E+00  9.000E+00
       5     1     1     2   501     0 -1.461745818E+01  3.948630014E+01  4.369088780E+02  4.389587317E+02  4.750000000E+00  0.00000E+00  9.000E+00
      -5     1     1     2     0   503  2.000307089E+01 -7.658611564E+01  5.364195174E+02  5.422490360E+02  4.750000000E+00  0.00000E+00  9.000E+00
      21     1     1     2   503   511 -2.066248333E+01 -3.562715435E+01  6.008596619E+01  7.284610955E+01  2.431401974E-06  0.00000E+00  9.000E+00
#rwgt            1           9   1.3272335666607321E-002          12     2641793           0
</event>
<event>
      6   9999  3.45752E-01  3.25358E+01 -1.00000E+00  1.45594E-01
       2    -1     0     0   501     0  0.000000000E+00  0.000000000E+00  2.516495867E+02  2.516495867E+02  0.000000000E+00  0.00000E+00  9.000E+00
      21    -1     0     0   502   503  0.000000000E+00  0.000000000E+00 -1.849777111E+03  1.849777111E+03  0.000000000E+00  0.00000E+00  9.000E+00
      25     1     1     2     0     0  9.064798802E-01 -1.788864392E+00 -1.752852359E+03  1.757304971E+03  1.250013867E+02  0.00000E+00  9.000E+00
       5     1     1     2   501     0 -6.069747583E+00  2.956976271E+01  4.390602167E+01  5.349312050E+01  4.750000000E+00  0.00000E+00  9.000E+00
      -5     1     1     2     0   503  4.893963105E+00  4.753817867E+00 -8.839011595E+01  8.878020476E+01  4.750000000E+00  0.00000E+00  9.000E+00
       2     1     1     2   502     0  2.693045975E-01 -3.253471619E+01  1.992089283E+02  2.018484021E+02  3.814697266E-06  0.00000E+00  9.000E+00
#rwgt            1           9   1.0249122979070657E-002          12     2643365           0
</event>
<event>
      6   9999  3.45752E-01  4.85595E+00 -1.00000E+00  2.31618E-01
      21    -1     0     0   501   502  0.000000000E+00  0.000000000E+00  1.997290092E+02  1.997290092E+02  0.000000000E+00  0.00000E+00  9.000E+00
      21    -1     0     0   511   503  0.000000000E+00  0.000000000E+00 -3.298569650E+01  3.298569650E+01  0.000000000E+00  0.00000E+00  9.000E+00
      25     1     1     2     0     0  1.228598498E+01 -6.991906236E+00  1.688283932E+02  2.105523850E+02  1.250177919E+02  0.00000E+00  9.000E+00
       5     1     1     2   501     0  7.737986671E-01  3.899940315E+00 -3.667948191E+00  7.198933447E+00  4.750000000E+00  0.00000E+00  9.000E+00
      -5     1     1     2     0   503 -8.489987927E+00  1.449656560E+00 -6.314894622E-02  9.836050373E+00  4.750000000E+00  0.00000E+00  9.000E+00
      21     1     1     2   511   502 -4.569795722E+00  1.642309360E+00  1.646016688E+00  5.127336922E+00  7.300048300E-08  0.00000E+00  9.000E+00
#rwgt            1           9   2.0696279337734045               12     2645339           0
</event>
<event>
      6   9999  3.45752E-01  8.25067E+01 -1.00000E+00  1.24094E-01
      21    -1     0     0   501   502  0.000000000E+00  0.000000000E+00  6.293981695E+01  6.293981695E+01  0.000000000E+00  0.00000E+00  9.000E+00
       2    -1     0     0   502     0  0.000000000E+00  0.000000000E+00 -3.471461081E+03  3.471461081E+03  0.000000000E+00  0.00000E+00  9.000E+00
      25     1     1     2     0     0  1.712110764E+02  1.365692782E+02 -3.594049507E+02  4.390478849E+02  1.250069047E+02  0.00000E+00  9.000E+00
       5     1     1     2   501     0 -1.805628073E+00  6.470195835E+00  9.969657440E+00  1.292595437E+01  4.750000000E+00  0.00000E+00  9.000E+00
      -5     1     1     2     0   503 -2.114347278E+02 -7.204016606E+01 -1.146737412E+03  1.168299484E+03  4.750000000E+00  0.00000E+00  9.000E+00
       2     1     1     2   503     0  4.202927944E+01 -7.099930794E+01 -1.912348559E+03  1.914127575E+03  2.157918644E-05  0.00000E+00  9.000E+00
#rwgt            1           9   7.4672788127309354E-003          12     2649375           0
</event>
<event>
      6   9999  3.45752E-01  9.37006E+00 -1.00000E+00  1.90220E-01
      21    -1     0     0   501   511  0.000000000E+00  0.000000000E+00  1.114504495E+02  1.114504495E+02  0.000000000E+00  0.00000E+00  9.000E+00
      21    -1     0     0   502   503  0.000000000E+00  0.000000000E+00 -7.456692023E+02  7.456692023E+02  0.000000000E+00  0.00000E+00  9.000E+00
      25     1     1     2     0     0  8.062442269E+00 -9.174346315E+00 -6.970396709E+02  7.082643581E+02  1.249997062E+02  0.00000E+00  9.000E+00
       5     1     1     2   501     0  2.779247948E+00 -4.181637485E-02  1.368042973E+01  1.474593590E+01  4.750000000E+00  0.00000E+00  9.000E+00
      -5     1     1     2     0   503 -4.650290802E+00  2.183057354E+00 -4.195441104E+01  4.253382242E+01  4.750000000E+00  0.00000E+00  9.000E+00
      21     1     1     2   502   511 -6.191399414E+00  7.033105335E+00  9.109489935E+01  9.157553541E+01  3.303624740E-06  0.00000E+00  9.000E+00
#rwgt            1           9   2.3564575330851803E-003          12     2650199           0
</event>
<event>
      6   9999  3.45752E-01  1.78782E+01 -1.00000E+00  1.64019E-01
      21    -1     0     0   501   512  0.000000000E+00  0.000000000E+00  1.581889981E+01  1.581889981E+01  0.000000000E+00  0.00000E+00  9.000E+00
      21    -1     0     0   502   503  0.000000000E+00  0.000000000E+00 -8.986014853E+02  8.986014853E+02  0.000000000E+00  0.00000E+00  9.000E+00
      25     1     1     2     0     0 -1.169945242E+01  1.452571434E+01 -8.438706468E+02  8.532815646E+02  1.249955456E+02  0.00000E+00  9.000E+00
       5     1     1     2   501     0 -1.677351915E+00  1.607117271E+00  4.743800123E+00  7.103694460E+00  4.750000000E+00  0.00000E+00  9.000E+00
      -5     1     1     2     0   503 -4.051172937E+00 -1.214600769E+01 -2.267900670E+01  2.647333281E+01  4.750000000E+00  0.00000E+00  9.000E+00
      21     1     1     2   502   512  1.742797727E+01 -3.986823919E+00 -2.097673217E+01  2.756179329E+01  6.307962682E-07  0.00000E+00  9.000E+00
#rwgt            1           9   3.4082339139547809E-003          12     2652819           0
</event>
<event>
      6   9999 -3.45752E-01  2.56779E+01 -1.00000E+00  1.52345E-01
      21    -1     0     0   502   511  0.000000000E+00  0.000000000E+00  1.899574641E+02  1.899574641E+02  0.000000000E+00  0.00000E+00  9.000E+00
      21    -1     0     0   501   502  0.000000000E+00  0.000000000E+00 -1.510060872E+03  1.510060872E+03  0.000000000E+00  0.00000E+00  9.000E+00
      25     1     1     2     0     0 -2.020745960E+02 -2.557205282E+02 -9.065724720E+02  9.714559327E+02  1.250034047E+02  0.00000E+00  9.000E+00
       5     1     1     2   501     0  3.332708615E+00  7.898648166E+00 -2.530512729E+01  2.713683027E+01  4.750000000E+00  0.00000E+00  9.000E+00
      -5     1     1     2     0   503  2.147983484E+02  2.678605010E+02 -4.889499506E+02  5.974798700E+02  4.750000000E+00  0.00000E+00  9.000E+00
      21     1     1     2   503   511 -1.605646101E+01 -2.003862091E+01  1.007241423E+02  1.039457027E+02  3.303624740E-06  0.00000E+00  9.000E+00
#rwgt            1           9  -1.7928179824789489E-004          12     2654573           0
</event>
<event>
      6   9999 -3.45752E-01  5.09586E+00 -1.00000E+00  2.24440E-01
      21    -1     0     0   501   502  0.000000000E+00  0.000000000E+00  6.352964297E+00  6.352964297E+00  0.000000000E+00  0.00000E+00  9.000E+00
      21    -1     0     0   512   503  0.000000000E+00  0.000000000E+00 -1.940590157E+03  1.940590157E+03  0.000000000E+00  0.00000E+00  9.000E+00
      25     1     1     2     0     0 -6.430132340E+00  7.443234536E+00 -1.194049062E+03  1.200614449E+03  1.250005769E+02  0.00000E+00  9.000E+00
       5     1     1     2   501     0 -1.486713538E+00  1.105059261E+00 -1.170386385E+00  5.231039801E+00  4.750000000E+00  0.00000E+00  9.000E+00
      -5     1     1     2     0   503  2.917072478E+00 -9.533187875E+00 -2.854638766E+01  3.060800110E+01  4.750000000E+00  0.00000E+00  9.000E+00
      21     1     1     2   512   502  4.999773401E+00  9.848940780E-01 -7.104713570E+02  7.104896318E+02  7.629394531E-06  0.00000E+00  9.000E+00
#rwgt            1           9  -1.6596698309641664E-004          12     2657155           0
</event>
<event>
      6   9999  3.45752E-01  5.57433E+00 -1.00000E+00  2.18608E-01
      21    -1     0     0   511   502  0.000000000E+00  0.000000000E+00  5.682343203E+01  5.682343203E+01  0.000000000E+00  0.00000E+00  9.000E+00
      21    -1     0     0   502   503  0.000000000E+00  0.000000000E+00 -2.618891791E+03  2.618891791E+03  0.000000000E+00  0.00000E+00  9.000E+00
      25     1     1     2     0     0  3.056287149E+01  8.491513179E+00 -1.877367432E+03  1.881791934E+03  1.250048591E+02  0.00000E+00  9.000E+00
       5     1     1     2   501     0 -2.235435825E-01 -1.262921458E+00 -2.603400418E+00  5.566429383E+00  4.750000000E+00  0.00000E+00  9.000E+00
      -5     1     1     2     0   503 -2.493954321E+01 -5.844585302E+00 -7.348495154E+02  7.353111673E+02  4.750000000E+00  0.00000E+00  9.000E+00
      21     1     1     2   511   501 -5.399784700E+00 -1.384006419E+00  5.275198864E+01  5.304569213E+01  2.132480600E-06  0.00000E+00  9.000E+00
#rwgt            1           9   9.1902874039765901E-003          12     2661753           0
</event>
<event>
      6   9999 -3.45752E-01  2.66950E+00 -1.00000E+00  2.90878E-01
      21    -1     0     0   512   502  0.000000000E+00  0.000000000E+00  9.440608868E+01  9.440608868E+01  0.000000000E+00  0.00000E+00  9.000E+00
      21    -1     0     0   502   503  0.000000000E+00  0.000000000E+00 -1.479167016E+02  1.479167016E+02  0.000000000E+00  0.00000E+00  9.000E+00
      25     1     1     2     0     0  5.387960716E+00 -8.601655188E+00 -6.718967661E+01  1.422929486E+02  1.250192465E+02  0.00000E+00  9.000E+00
       5     1     1     2   501     0 -7.821439021E-01  1.971768996E+00  3.741015653E+01  3.777011959E+01  4.750000000E+00  0.00000E+00  9.000E+00
      -5     1     1     2     0   503 -2.685798426E+00  4.775231035E+00 -4.259504001E+01  4.320782659E+01  4.750000000E+00  0.00000E+00  9.000E+00
      21     1     1     2   512   501 -1.920018388E+00  1.854655158E+00  1.886394720E+01  1.905189546E+01  2.384185791E-07  0.00000E+00  9.000E+00
#rwgt            1           9  -1.4482183690999901               12     2665478           0
</event>
<event>
      6   9999 -3.45752E-01  4.81895E+01 -1.00000E+00  1.35650E-01
      21    -1     0     0   511   503  0.000000000E+00  0.000000000E+00  3.137735452E+02  3.137735452E+02  0.000000000E+00  0.00000E+00  9.000E+00
      21    -1     0     0   501   502  0.000000000E+00  0.000000000E+00 -1.028984224E+03  1.028984224E+03  0.000000000E+00  0.00000E+00  9.000E+00
      25     1     1     2     0     0 -6.433762564E+01 -7.944935590E+01 -2.250815146E+02  2.770174436E+02  1.250017825E+02  0.00000E+00  9.000E+00
       5     1     1     2   501     0  3.820693384E+00  4.267529086E+00 -4.852365936E+01  4.909091076E+01  4.750000000E+00  0.00000E+00  9.000E+00
      -5     1     1     2     0   503  6.104642776E+01  2.699528095E+01 -7.255577435E+02  7.286370929E+02  4.750000000E+00  0.00000E+00  9.000E+00
      21     1     1     2   511   502 -5.294955041E-01  4.818654587E+01  2.839522388E+02  2.880123217E+02  5.394796609E-06  0.00000E+00  9.000E+00
#rwgt            1           9 -0.41009484426488241               12     2672783           0
</event>
<event>
      6   9999  3.45752E-01  1.07906E+01 -1.00000E+00  1.83779E-01
      21    -1     0     0   512   502  0.000000000E+00  0.000000000E+00  5.482969007E+02  5.482969007E+02  0.000000000E+00  0.00000E+00  9.000E+00
      21    -1     0     0   502   503  0.000000000E+00  0.000000000E+00 -2.683092762E+01  2.683092762E+01  0.000000000E+00  0.00000E+00  9.000E+00
      25     1     1     2     0     0 -1.015680954E+01 -4.004018644E+01  1.536667799E+02  2.023471699E+02  1.249980824E+02  0.00000E+00  9.000E+00
       5     1     1     2   501     0 -1.443190058E-03  3.872664479E-02  1.496349009E+02  1.497102788E+02  4.750000000E+00  0.00000E+00  9.000E+00
      -5     1     1     2     0   503  1.136059911E+01  2.927804452E+01  1.137880438E+02  1.181378369E+02  4.750000000E+00  0.00000E+00  9.000E+00
      21     1     1     2   512   501 -1.202346374E+00  1.072341528E+01  1.043762485E+02  1.049325427E+02  0.000000000E+00  0.00000E+00  9.000E+00
#rwgt            1           9   4.7622470100673275E-002          12     2673640           0
</event>
<event>
      6   9999  3.45752E-01  7.51156E+00 -1.00000E+00  2.01311E-01
      21    -1     0     0   511   502  0.000000000E+00  0.000000000E+00  8.829272411E+00  8.829272411E+00  0.000000000E+00  0.00000E+00  9.000E+00
      21    -1     0     0   502   503  0.000000000E+00  0.000000000E+00 -6.938733542E+02  6.938733542E+02  0.000000000E+00  0.00000E+00  9.000E+00
      25     1     1     2     0     0  4.968363711E+00 -6.231647545E+00 -5.884173520E+02  6.016008194E+02  1.250001905E+02  0.00000E+00  9.000E+00
       5     1     1     2   501     0  2.688671068E-01 -7.707675578E-01 -2.612043617E+00  5.481937979E+00  4.750000000E+00  0.00000E+00  9.000E+00
      -5     1     1     2     0   503  1.827273655E+00  4.449701775E+00 -7.282646808E+01  7.313956336E+01  4.750000000E+00  0.00000E+00  9.000E+00
      21     1     1     2   511   501 -7.064504473E+00  2.552713328E+00 -2.118821807E+01  2.248030591E+01  5.331201500E-07  0.00000E+00  9.000E+00
#rwgt            1           9   2.8430106470616152E-003          12     2676766           0
</event>
<event>
      6   9999  3.45752E-01  2.85130E+00 -1.00000E+00  2.82816E-01
      21    -1     0     0   502   512  0.000000000E+00  0.000000000E+00  2.023168702E+03  2.023168702E+03  0.000000000E+00  0.00000E+00  9.000E+00
      21    -1     0     0   501   502  0.000000000E+00  0.000000000E+00 -3.460351435E+00  3.460351435E+00  0.000000000E+00  0.00000E+00  9.000E+00
      25     1     1     2     0     0 -2.479360002E-01  1.611689557E+01  1.211524868E+03  1.218063187E+03  1.250024220E+02  0.00000E+00  9.000E+00
       5     1     1     2   501     0 -3.017913553E-01  3.250490665E-02  2.318655844E+02  2.319144322E+02  4.750000000E+00  0.00000E+00  9.000E+00
      -5     1     1     2     0   503  3.287960441E+00 -1.535442276E+01  4.443430918E+02  4.446458306E+02  4.750000000E+00  0.00000E+00  9.000E+00
      21     1     1     2   503   512 -2.738233085E+00 -7.949777198E-01  1.319748062E+02  1.320056036E+02  1.907348633E-06  0.00000E+00  9.000E+00
#rwgt            1           9   4.9956948669834331E-003          12     2679524           0
</event>
<event>
      6   9999  3.45752E-01  3.37535E+01 -1.00000E+00  1.44601E-01
      21    -1     0     0   501   502  0.000000000E+00  0.000000000E+00  7.252918802E+01  7.252918802E+01  0.000000000E+00  0.00000E+00  9.000E+00
      21    -1     0     0   511   503  0.000000000E+00  0.000000000E+00 -1.856007598E+03  1.856007598E+03  0.000000000E+00  0.00000E+00  9.000E+00
      25     1     1     2     0     0  1.749711160E+01  3.238218022E+01 -1.087384898E+03  1.095165327E+03  1.250056882E+02  0.00000E+00  9.000E+00
       5     1     1     2   501     0  1.971793491E+00 -1.601752238E+00  6.771267655E+01  6.792659749E+01  4.750000000E+00  0.00000E+00  9.000E+00
      -5     1     1     2     0   503  5.230122844E+00 -7.774910734E+00 -3.834657845E+02  3.836096633E+02  4.750000000E+00  0.00000E+00  9.000E+00
      21     1     1     2   511   502 -2.469902793E+01 -2.300551725E+01 -3.803404042E+02  3.818351986E+02  7.629394531E-06  0.00000E+00  9.000E+00
#rwgt            1           9   1.1638479201727421               12     2685304           0
</event>
<event>
      6   9999  3.45752E-01  5.07440E+01 -1.00000E+00  1.34445E-01
      21    -1     0     0   501   502  0.000000000E+00  0.000000000E+00  1.881257317E+03  1.881257317E+03  0.000000000E+00  0.00000E+00  9.000E+00
      21    -1     0     0   502   512  0.000000000E+00  0.000000000E+00 -5.319022674E+02  5.319022674E+02  0.000000000E+00  0.00000E+00  9.000E+00
      25     1     1     2     0     0 -4.927587083E+00 -1.153278324E+02  7.160756142E+02  7.360120609E+02  1.249987141E+02  0.00000E+00  9.000E+00
       5     1     1     2   501     0 -5.283338960E+00 -4.207759430E+00  1.099898552E+03  1.099929546E+03  4.750000000E+00  0.00000E+00  9.000E+00
      -5     1     1     2     0   503 -2.168604073E+01  8.006997723E+01  2.201378825E+01  8.595728584E+01  4.750000000E+00  0.00000E+00  9.000E+00
      21     1     1     2   503   512  3.189696677E+01  3.946561456E+01 -4.886329050E+02  4.912606916E+02  9.344061824E-06  0.00000E+00  9.000E+00
#rwgt            1           9   1.8253084169838099               12     2687243           0
</event>
<event>
      6   9999  3.45752E-01  8.91445E+00 -1.00000E+00  1.92608E-01
      21    -1     0     0   501   511  0.000000000E+00  0.000000000E+00  1.341639993E+01  1.341639993E+01  0.000000000E+00  0.00000E+00  9.000E+00
      21    -1     0     0   502   503  0.000000000E+00  0.000000000E+00 -7.170383162E+02  7.170383162E+02  0.000000000E+00  0.00000E+00  9.000E+00
      25     1     1     2     0     0 -2.176040780E+00  1.034797385E+01 -6.347095495E+02  6.469868553E+02  1.249958521E+02  0.00000E+00  9.000E+00
       5     1     1     2   501     0  9.331339507E+00 -1.575704504E+01 -4.194341617E+01  4.601272678E+01  4.750000000E+00  0.00000E+00  9.000E+00
      -5     1     1     2     0   503  6.681727417E-01  1.135816132E+00 -2.804595516E+01  2.847586055E+01  4.750000000E+00  0.00000E+00  9.000E+00
      21     1     1     2   502   511 -7.823471468E+00  4.273255054E+00  1.077004482E+00  8.979273536E+00  1.021572143E-07  0.00000E+00  9.000E+00
#rwgt            1           9   2.6249374667153762E-004          12     2688415           0
</event>
<event>
      6   9999  3.45752E-01  4.09808E+00 -1.00000E+00  2.45693E-01
      21    -1     0     0   501   512  0.000000000E+00  0.000000000E+00  1.126514992E+02  1.126514992E+02  0.000000000E+00  0.00000E+00  9.000E+00
      21    -1     0     0   502   503  0.000000000E+00  0.000000000E+00 -7.755374987E+02  7.755374987E+02  0.000000000E+00  0.00000E+00  9.000E+00
      25     1     1     2     0     0  1.950546677E+01 -1.444753296E+01 -6.176246430E+02  6.306151836E+02  1.250044628E+02  0.00000E+00  9.000E+00
       5     1     1     2   501     0 -1.084258615E+00  4.469484501E-01 -1.385012487E+00  5.084893239E+00  4.750000000E+00  0.00000E+00  9.000E+00
      -5     1     1     2     0   503 -1.790107588E+01  1.806551770E+01 -1.470123238E+02  1.492715556E+02  4.750000000E+00  0.00000E+00  9.000E+00
      21     1     1     2   502   512 -5.201322750E-01 -4.064933197E+00  1.031359798E+02  1.032173655E+02  3.303624740E-06  0.00000E+00  9.000E+00
#rwgt            1           9   9.0024733384742817E-002          12     2690776           0
</event>
<event>
      6   9999  3.45752E-01  1.03413E+01 -1.00000E+00  1.85672E-01
      21    -1     0     0   511   502  0.000000000E+00  0.000000000E+00  6.459595480E+01  6.459595480E+01  0.000000000E+00  0.00000E+00  9.000E+00
      21    -1     0     0   502   503  0.000000000E+00  0.000000000E+00 -8.806192138E+02  8.806192138E+02  0.000000000E+00  0.00000E+00  9.000E+00
      25     1     1     2     0     0 -7.931161586E-01 -6.556691025E-01 -8.228247190E+02  8.322659270E+02  1.249999848E+02  0.00000E+00  9.000E+00
       5     1     1     2   501     0 -7.017342340E+00  8.781105929E-01  7.131727667E+00  1.111027503E+01  4.750000000E+00  0.00000E+00  9.000E+00
      -5     1     1     2     0   503 -2.528357668E+00 -4.475932023E-01 -5.041218178E+01  5.070052765E+01  4.750000000E+00  0.00000E+00  9.000E+00
      21     1     1     2   511   501  1.033881617E+01  2.251517119E-01  5.008191409E+01  5.113843889E+01  2.697398305E-06  0.00000E+00  9.000E+00
#rwgt            1           9   4.7823454273972293E-005          12     2695193           0
</event>
<event>
      6   9999  3.45752E-01  2.64636E+01 -1.00000E+00  1.51450E-01
      21    -1     0     0   501   502  0.000000000E+00  0.000000000E+00  6.166593067E+01  6.166593067E+01  0.000000000E+00  0.00000E+00  9.000E+00
       2    -1     0     0   502     0  0.000000000E+00  0.000000000E+00 -2.719700323E+03  2.719700323E+03  0.000000000E+00  0.00000E+00  9.000E+00
      25     1     1     2     0     0  5.149835745E+01 -1.232514973E+01 -3.925288816E+02  4.153376260E+02  1.249897220E+02  0.00000E+00  9.000E+00
       5     1     1     2   501     0 -2.463638519E+00 -3.346590692E-02  4.927601933E+01  4.956570604E+01  4.750000000E+00  0.00000E+00  9.000E+00
      -5     1     1     2     0   503 -5.080318081E+01 -1.404580857E+01 -9.871073808E+02  9.885250587E+02  4.750000000E+00  0.00000E+00  9.000E+00
       2     1     1     2   503     0  1.768461878E+00  2.640442420E+01 -1.327674149E+03  1.327937863E+03  2.642899792E-05  0.00000E+00  9.000E+00
#rwgt            1           9   9.1537865129835364E-003          12     2698370           0
</event>
<event>
      6   9999 -3.45752E-01  3.56623E+01 -1.00000E+00  1.43139E-01
      21    -1     0     0   501   502  0.000000000E+00  0.000000000E+00  5.546103268E+02  5.546103268E+02  0.000000000E+00  0.00000E+00  9.000E+00
      21    -1     0     0   502   511  0.000000000E+00  0.000000000E+00 -1.922393278E+02  1.922393278E+02  0.000000000E+00  0.00000E+00  9.000E+00
      25     1     1     2     0     0 -3.754675042E+01 -4.768502138E+00 -1.205548388E+02  1.777341091E+02  1.249937890E+02  0.00000E+00  9.000E+00
       5     1     1     2   501     0 -3.414772470E-01 -1.970967910E+00  3.606892240E+02  3.607260458E+02  4.750000000E+00  0.00000E+00  9.000E+00
      -5     1     1     2     0   503  4.690137386E+01 -2.776505258E+01  1.522479765E+02  1.617796212E+02  4.750000000E+00  0.00000E+00  9.000E+00
      21     1     1     2   503   511 -9.013146198E+00  3.450452263E+01 -3.001136260E+01  4.660987847E+01  5.840038640E-07  0.00000E+00  9.000E+00
#rwgt            1           9  -5.7665992565291327E-002          12     2700855           0
</event>
<event>
      6   9999  3.45752E-01  5.02699E+01 -1.00000E+00  1.34663E-01
      21    -1     0     0   501   502  0.000000000E+00  0.000000000E+00  5.159132009E+01  5.159132009E+01  0.000000000E+00  0.00000E+00  9.000E+00
      21    -1     0     0   512   503  0.000000000E+00  0.000000000E+00 -1.604085455E+03  1.604085455E+03  0.000000000E+00  0.00000E+00  9.000E+00
      25     1     1     2     0     0 -7.275143184E+00  2.049366101E+02 -3.330140761E+02  4.105802032E+02  1.250031458E+02  0.00000E+00  9.000E+00
       5     1     1     2   501     0  3.715841359E+01  1.782789677E+00 -1.138285811E+02  1.198475465E+02  4.750000000E+00  0.00000E+00  9.000E+00
      -5     1     1     2     0   503 -2.487239908E+01 -1.566998152E+02 -8.536705286E+02  8.683025983E+02  4.750000000E+00  0.00000E+00  9.000E+00
      21     1     1     2   512   502 -5.010871327E+00 -5.001958465E+01 -2.519809496E+02  2.569464276E+02  2.697398305E-06  0.00000E+00  9.000E+00
#rwgt            1           9  0.26072341714585845               12     2702965           0
</event>
<event>
      6   9999  3.45752E-01  1.82011E+01 -1.00000E+00  1.63399E-01
      21    -1     0     0   501   502  0.000000000E+00  0.000000000E+00  2.098227934E+01  2.098227934E+01  0.000000000E+00  0.00000E+00  9.000E+00
      21    -1     0     0   502   511  0.000000000E+00  0.000000000E+00 -2.979939092E+03  2.979939092E+03  0.000000000E+00  0.00000E+00  9.000E+00
      25     1     1     2     0     0 -1.961154777E+01 -1.200198068E+00 -2.672176587E+03  2.675171038E+03  1.250052602E+02  0.00000E+00  9.000E+00
       5     1     1     2   501     0 -8.910124086E-02 -5.414660812E+00  1.834302116E+01  1.970673530E+01  4.750000000E+00  0.00000E+00  9.000E+00
      -5     1     1     2     0   503  2.612503102E+00  3.479945933E-01 -5.989700007E+01  6.014282493E+01  4.750000000E+00  0.00000E+00  9.000E+00
      21     1     1     2   503   511  1.708814591E+01  6.266864286E+00 -2.452262471E+02  2.459007739E+02  3.814697266E-06  0.00000E+00  9.000E+00
#rwgt            1           9   2.7507030820285542E-004          12     2704764           0
</event>
<event>
      6   9999  3.45752E-01  7.12465E+00 -1.00000E+00  2.04166E-01
      21    -1     0     0   501   502  0.000000000E+00  0.000000000E+00  6.075660993E+01  6.075660993E+01  0.000000000E+00  0.00000E+00  9.000E+00
      21    -1     0     0   512   503  0.000000000E+00  0.000000000E+00 -1.960085894E+03  1.960085894E+03  0.000000000E+00  0.00000E+00  9.000E+00
      25     1     1     2     0     0  6.999509422E+00 -9.428366296E+00 -1.373691023E+03  1.379416516E+03  1.250000518E+02  0.00000E+00  9.000E+00
       5     1     1     2   501     0 -3.728243527E+00  1.071234681E+01  5.668982033E+01  5.800820979E+01  4.750000000E+00  0.00000E+00  9.000E+00
      -5     1     1     2     0   503 -1.039012085E+01 -9.967511571E-01 -5.566914511E+02  5.568095567E+02  4.750000000E+00  0.00000E+00  9.000E+00
      21     1     1     2   512   502  7.118854951E+00 -2.872293615E-01 -2.563663106E+01  2.660822145E+01  0.000000000E+00  0.00000E+00  9.000E+00
#rwgt            1           9   5.0270615630232177E-002          12     2707200           0
</event>
<event>
      6   9999  3.45752E-01  1.83326E+01 -1.00000E+00  1.63151E-01
      21    -1     0     0   511   502  0.000000000E+00  0.000000000E+00  1.167069604E+01  1.167069604E+01  0.000000000E+00  0.00000E+00  9.000E+00
      21    -1     0     0   502   503  0.000000000E+00  0.000000000E+00 -7.283477856E+02  7.283477856E+02  0.000000000E+00  0.00000E+00  9.000E+00
      25     1     1     2     0     0  1.597883197E+01 -5.316914237E+00 -5.986529519E+02  6.117954755E+02  1.249990174E+02  0.00000E+00  9.000E+00
       5     1     1     2   501     0  9.081116521E-01 -8.947487827E-02 -1.053817197E+01  1.159518180E+01  4.750000000E+00  0.00000E+00  9.000E+00
      -5     1     1     2     0   503  1.081654187E+00  1.771114465E+00 -9.330935990E+01  9.345322877E+01  4.750000000E+00  0.00000E+00  9.000E+00
      21     1     1     2   511   501 -1.796859781E+01  3.635274650E+00 -1.417660582E+01  2.317459561E+01  1.685873940E-07  0.00000E+00  9.000E+00
#rwgt            1           9   3.2517160494145822E-006          12     2713158           0
</event>
<event>
      6   9999  3.45752E-01  4.38494E+00 -1.00000E+00  2.39870E-01
      21    -1     0     0   512   502  0.000000000E+00  0.000000000E+00  6.105444002E+01  6.105444002E+01  0.000000000E+00  0.00000E+00  9.000E+00
      21    -1     0     0   502   503  0.000000000E+00  0.000000000E+00 -4.081409714E+02  4.081409714E+02  0.000000000E+00  0.00000E+00  9.000E+00
      25     1     1     2     0     0 -1.604188641E+00 -8.474621050E+00 -3.604358173E+02  3.815913578E+02  1.249943731E+02  0.00000E+00  9.000E+00
       5     1     1     2   501     0  1.678756373E+00 -6.023260727E-01  2.469940506E+00  5.643059964E+00  4.750000000E+00  0.00000E+00  9.000E+00
      -5     1     1     2     0   503  3.604152500E+00  6.690579900E+00 -3.486936257E+01  3.600262103E+01  4.750000000E+00  0.00000E+00  9.000E+00
      21     1     1     2   512   501 -3.678720232E+00  2.386367223E+00  4.574870801E+01  4.595837263E+01  6.743495762E-07  0.00000E+00  9.000E+00
#rwgt            1           9   1.4844425436199963E-002          12     2714510           0
</event>
<event>
      6   9999  3.45752E-01  7.88056E+00 -1.00000E+00  1.98792E-01
      21    -1     0     0   501   502  0.000000000E+00  0.000000000E+00  1.197310037E+01  1.197310037E+01  0.000000000E+00  0.00000E+00  9.000E+00
      21    -1     0     0   502   511  0.000000000E+00  0.000000000E+00 -8.832779167E+02  8.832779167E+02  0.000000000E+00  0.00000E+00  9.000E+00
      25     1     1     2     0     0  2.875726631E+01  3.943333403E+01 -5.469616608E+02  5.631837297E+02  1.250075468E+02  0.00000E+00  9.000E+00
       5     1     1     2   501     0  6.261330151E-02 -3.000962438E-01 -8.964371185E-01  4.843560435E+00  4.750000000E+00  0.00000E+00  9.000E+00
      -5     1     1     2     0   503 -2.685023041E+01 -3.150278802E+01 -2.677688812E+02  2.709909533E+02  4.750000000E+00  0.00000E+00  9.000E+00
      21     1     1     2   503   511 -1.969649198E+00 -7.630449762E+00 -5.567783716E+01  5.623277365E+01  9.536743164E-07  0.00000E+00  9.000E+00
#rwgt            1           9   2.4303682594280321E-004          12     2718473           0
</event>
<event>
      6   9999  3.45752E-01  5.22921E+00 -1.00000E+00  2.22729E-01
      21    -1     0     0   501   502  0.000000000E+00  0.000000000E+00  1.532739652E+01  1.532739652E+01  0.000000000E+00  0.00000E+00  9.000E+00
      21    -1     0     0   512   503  0.000000000E+00  0.000000000E+00 -1.105880166E+03  1.105880166E+03  0.000000000E+00  0.00000E+00  9.000E+00
      25     1     1     2     0     0  8.766219931E-01  1.180645303E+01 -4.092054215E+02  4.278870991E+02  1.244914928E+02  0.00000E+00  9.000E+00
       5     1     1     2   501     0 -1.647283356E-01 -1.516911147E+00  4.854992724E+00  6.961437294E+00  4.750000000E+00  0.00000E+00  9.000E+00
      -5     1     1     2     0   503  3.490739950E+00 -7.177874615E+00 -4.837760222E+02  4.838651768E+02  4.750000000E+00  0.00000E+00  9.000E+00
      21     1     1     2   512   502 -4.202633607E+00 -3.111667266E+00 -2.024263186E+02  2.024938494E+02  3.814697266E-06  0.00000E+00  9.000E+00
#rwgt            1           9   8.7326491126536916E-004          12     2721840           0
</event>
<event>
      6   9999 -3.45752E-01  1.89728E+01 -1.00000E+00  1.61978E-01
      21    -1     0     0   511   502  0.000000000E+00  0.000000000E+00  8.298504457E+01  8.298504457E+01  0.000000000E+00  0.00000E+00  9.000E+00
      21    -1     0     0   502   503  0.000000000E+00  0.000000000E+00 -1.485016835E+03  1.485016835E+03  0.000000000E+00  0.00000E+00  9.000E+00
      25     1     1     2     0     0 -2.301993986E+01  1.734827575E+01 -1.474632378E+03  1.480201540E+03  1.250002746E+02  0.00000E+00  9.000E+00
       5     1     1     2   501     0  2.227536221E+00  2.918915536E+00  3.357124912E+01  3.410385980E+01  4.750000000E+00  0.00000E+00  9.000E+00
      -5     1     1     2     0   503  8.828030134E+00 -5.542331910E+00  3.108347881E+01  3.312697865E+01  4.750000000E+00  0.00000E+00  9.000E+00
      21     1     1     2   511   501  1.196437351E+01 -1.472485938E+01  7.945859139E+00  2.056950156E+01  7.348554138E-07  0.00000E+00  9.000E+00
#rwgt            1           9  -3.4114400112111119E-003          12     2726323           0
</event>
<event>
      6   9999  3.45752E-01  9.31514E+00 -1.00000E+00  1.90499E-01
      21    -1     0     0   501   512  0.000000000E+00  0.000000000E+00  4.226254504E+01  4.226254504E+01  0.000000000E+00  0.00000E+00  9.000E+00
      21    -1     0     0   502   503  0.000000000E+00  0.000000000E+00 -2.765306594E+02  2.765306594E+02  0.000000000E+00  0.00000E+00  9.000E+00
      25     1     1     2     0     0 -1.260824358E+01 -2.748422265E+01 -1.766388869E+02  2.184971817E+02  1.250014870E+02  0.00000E+00  9.000E+00
       5     1     1     2   501     0  7.169500838E+00  2.627276015E+01 -5.811645268E+01  6.435638461E+01  4.750000000E+00  0.00000E+00  9.000E+00
      -5     1     1     2     0   503 -3.165146764E+00  4.781472824E+00 -1.563629639E+01  1.731868648E+01  4.750000000E+00  0.00000E+00  9.000E+00
      21     1     1     2   502   512  8.603889506E+00 -3.570010321E+00  1.612352166E+01  1.862095162E+01  4.768371582E-07  0.00000E+00  9.000E+00
#rwgt            1           9   8.4623427066030793E-004          12     2729135           0
</event>
<event>
      6   9999  3.45752E-01  1.82267E+01 -1.00000E+00  1.63350E-01
      21    -1     0     0   501   511  0.000000000E+00  0.000000000E+00  3.027963412E+01  3.027963412E+01  0.000000000E+00  0.00000E+00  9.000E+00
      21    -1     0     0   502   503  0.000000000E+00  0.000000000E+00 -8.042497314E+02  8.042497314E+02  0.000000000E+00  0.00000E+00  9.000E+00
      25     1     1     2     0     0  2.253040096E+01 -2.362194174E+01 -2.843718874E+02  3.123435047E+02  1.250019179E+02  0.00000E+00  9.000E+00
       5     1     1     2   501     0  7.023976551E+00  2.033467342E+00  1.246785034E+01  1.521450059E+01  4.750000000E+00  0.00000E+00  9.000E+00
      -5     1     1     2     0   503 -1.149107644E+01  1.915343918E+01 -4.660200065E+02  4.665791552E+02  4.750000000E+00  0.00000E+00  9.000E+00
      21     1     1     2   502   511 -1.806330108E+01  2.435035215E+00 -3.604605366E+01  4.039220503E+01  6.743495762E-07  0.00000E+00  9.000E+00
#rwgt            1           9   2.7988031952705943E-003          12     2731905           0
</event>
<event>
      6   9999  3.45752E-01  5.12910E+00 -1.00000E+00  2.24007E-01
       4    -1     0     0   501     0  0.000000000E+00  0.000000000E+00  6.928786419E+02  6.928786419E+02  0.000000000E+00  0.00000E+00  9.000E+00
      21    -1     0     0   502   503  0.000000000E+00  0.000000000E+00 -7.990133130E+02  7.990133130E+02  0.000000000E+00  0.00000E+00  9.000E+00
      25     1     1     2     0     0  5.308947061E+00 -1.696048583E+01 -7.382839707E+02  7.490017991E+02  1.249985227E+02  0.00000E+00  9.000E+00
       5     1     1     2   501     0  1.055541534E+00  5.634480554E-01  2.686215672E+00  5.586581806E+00  4.750000000E+00  0.00000E+00  9.000E+00
      -5     1     1     2     0   503 -2.307019377E+00  1.325943117E+01 -5.296600063E+01  5.485521466E+01  4.750000000E+00  0.00000E+00  9.000E+00
       4     1     1     2   502     0 -4.057469217E+00  3.137606606E+00  6.824290846E+02  6.824483593E+02  7.629394531E-06  0.00000E+00  9.000E+00
#rwgt            1           9   3.5676120878308032E-004          12     2734141           0
</event>
<event>
      6   9999  3.45752E-01  5.39029E+01 -1.00000E+00  1.33064E-01
      -4    -1     0     0     0   503  0.000000000E+00  0.000000000E+00  9.641855577E+01  9.641855577E+01  0.000000000E+00  0.00000E+00  9.000E+00
      21    -1     0     0   501   502  0.000000000E+00  0.000000000E+00 -1.227390393E+03  1.227390393E+03  0.000000000E+00  0.00000E+00  9.000E+00
      25     1     1     2     0     0  1.575894444E+02  9.460853441E+01 -3.714606672E+02  4.328874312E+02  1.249931718E+02  0.00000E+00  9.000E+00
       5     1     1     2   501     0 -1.104526361E+02 -7.665203183E+01 -7.882907980E+02  7.996876037E+02  4.750000000E+00  0.00000E+00  9.000E+00
      -5     1     1     2     0   503  6.401735811E-01  7.001042467E+00 -1.797644696E+01  1.987811770E+01  4.750000000E+00  0.00000E+00  9.000E+00
      -4     1     1     2     0   502 -4.777698184E+01 -2.495754505E+01  4.675607520E+01  7.135579596E+01  1.651812370E-06  0.00000E+00  9.000E+00
#rwgt            1           9   1.0038281476480373E-003          12     2737739           0
</event>
<event>
      6   9999  3.45752E-01  1.57468E+01 -1.00000E+00  1.68563E-01
      -3    -1     0     0     0   503  0.000000000E+00  0.000000000E+00  8.659405199E+01  8.659405199E+01  0.000000000E+00  0.00000E+00  9.000E+00
      21    -1     0     0   501   502  0.000000000E+00  0.000000000E+00 -1.001191010E+03  1.001191010E+03  0.000000000E+00  0.00000E+00  9.000E+00
      25     1     1     2     0     0 -3.847732700E+01  1.411782520E+01 -3.366970222E+02  3.614821629E+02  1.249986065E+02  0.00000E+00  9.000E+00
       5     1     1     2   501     0  8.219544362E+00  5.950701891E+01 -4.154126773E+02  4.197605284E+02  4.750000000E+00  0.00000E+00  9.000E+00
      -5     1     1     2     0   503  1.451447998E+01 -7.395808410E+01 -2.274703900E+02  2.396785538E+02  4.750000000E+00  0.00000E+00  9.000E+00
      -3     1     1     2     0   502  1.574330266E+01  3.332399941E-01  6.498313153E+01  6.686381691E+01  9.536743164E-07  0.00000E+00  9.000E+00
#rwgt            1           9   8.7823875337521371E-003          12     2738735           0
</event>
<event>
      6   9999  3.45752E-01  3.61006E+00 -1.00000E+00  2.57446E-01
      21    -1     0     0   501   502  0.000000000E+00  0.000000000E+00  1.091836571E+01  1.091836571E+01  0.000000000E+00  0.00000E+00  9.000E+00
      21    -1     0     0   511   503  0.000000000E+00  0.000000000E+00 -8.309886905E+02  8.309886905E+02  0.000000000E+00  0.00000E+00  9.000E+00
      25     1     1     2     0     0  4.172198144E+00 -1.046431737E+00 -7.518707414E+02  7.622031782E+02  1.250022830E+02  0.00000E+00  9.000E+00
       5     1     1     2   501     0  2.083564906E+00 -6.399566677E-01  4.210273272E+00  6.711161470E+00  4.750000000E+00  0.00000E+00  9.000E+00
      -5     1     1     2     0   503 -2.796096627E+00  6.552390956E-01 -4.733047577E+01  4.765484164E+01  4.750000000E+00  0.00000E+00  9.000E+00
      21     1     1     2   511   502 -3.459666422E+00  1.031149309E+00 -2.507938083E+01  2.533787488E+01  3.371747881E-07  0.00000E+00  9.000E+00
#rwgt            1           9   1.9796275222780038E-004          12     2740936           0
</event>
<event>
      6   9999  3.45752E-01  6.37927E+00 -1.00000E+00  2.10416E-01
      21    -1     0     0   501   502  0.000000000E+00  0.000000000E+00  2.694511976E+01  2.694511976E+01  0.000000000E+00  0.00000E+00  9.000E+00
      21    -1     0     0   512   503  0.000000000E+00  0.000000000E+00 -1.054489537E+03  1.054489537E+03  0.000000000E+00  0.00000E+00  9.000E+00
      25     1     1     2     0     0 -3.954158043E+01  1.079204522E+02 -5.925416647E+02  6.163938208E+02  1.250014292E+02  0.00000E+00  9.000E+00
       5     1     1     2   501     0 -1.594582198E+00  1.284600641E+00  5.676109784E+00  7.679427939E+00  4.750000000E+00  0.00000E+00  9.000E+00
      -5     1     1     2     0   503  3.552688221E+01 -1.061667955E+02 -3.752724241E+02  3.916446127E+02  4.750000000E+00  0.00000E+00  9.000E+00
      21     1     1     2   512   502  5.609280418E+00 -3.038257325E+00 -6.540643813E+01  6.571679529E+01  1.651812370E-06  0.00000E+00  9.000E+00
#rwgt            1           9   2.2023946853276242E-004          12     2745830           0
</event>
<event>
      6   9999 -3.45752E-01  5.97180E+01 -1.00000E+00  1.30786E-01
      21    -1     0     0   502   511  0.000000000E+00  0.000000000E+00  1.092040637E+02  1.092040637E+02  0.000000000E+00  0.00000E+00  9.000E+00
      21    -1     0     0   501   502  0.000000000E+00  0.000000000E+00 -9.963641077E+02  9.963641077E+02  0.000000000E+00  0.00000E+00  9.000E+00
      25     1     1     2     0     0 -8.146754621E+01 -7.202554602E+01 -4.675531034E+02  4.960397106E+02  1.249993983E+02  0.00000E+00  9.000E+00
       5     1     1     2   501     0  8.382192806E+01  2.053990677E+01 -4.575952309E+02  4.656865483E+02  4.750000000E+00  0.00000E+00  9.000E+00
      -5     1     1     2     0   503 -4.790642997E+00 -8.182637529E+00 -4.239620720E+01  4.370247936E+01  4.750000000E+00  0.00000E+00  9.000E+00
      21     1     1     2   503   511  2.436261148E+00  5.966827678E+01  8.038449756E+01  1.001394331E+02  2.132480600E-06  0.00000E+00  9.000E+00
#rwgt            1           9  -4.9347782820487254E-003          12     2750211           0
</event>
<event>
      6   9999  3.45752E-01  7.77969E+00 -1.00000E+00  1.99462E-01
      21    -1     0     0   512   502  0.000000000E+00  0.000000000E+00  1.310991988E+01  1.310991988E+01  0.000000000E+00  0.00000E+00  9.000E+00
      21    -1     0     0   502   503  0.000000000E+00  0.000000000E+00 -8.050674478E+02  8.050674478E+02  0.000000000E+00  0.00000E+00  9.000E+00
      25     1     1     2     0     0  8.794168346E+00 -6.163381407E+00 -6.953727715E+02  7.066013023E+02  1.250071378E+02  0.00000E+00  9.000E+00
       5     1     1     2   501     0  3.061062017E+00  2.542403104E+00  4.634898292E+00  7.738132616E+00  4.750000000E+00  0.00000E+00  9.000E+00
      -5     1     1     2     0   503 -4.107726355E+00  4.327958369E+00 -8.916681146E+01  8.949238742E+01  4.750000000E+00  0.00000E+00  9.000E+00
      21     1     1     2   512   501 -7.747504008E+00 -7.069800656E-01 -1.205284328E+01  1.434554531E+01  2.384185791E-07  0.00000E+00  9.000E+00
#rwgt            1           9   1.3644564849895940E-002          12     2751145           0
</event>
<event>
      6   9999  3.45752E-01  2.04835E+01 -1.00000E+00  1.59423E-01
      21    -1     0     0   501   502  0.000000000E+00  0.000000000E+00  3.885339048E+02  3.885339048E+02  0.000000000E+00  0.00000E+00  9.000E+00
      21    -1     0     0   511   503  0.000000000E+00  0.000000000E+00 -9.068690350E+01  9.068690350E+01  0.000000000E+00  0.00000E+00  9.000E+00
      25     1     1     2     0     0 -3.038199107E+01  7.985461039E+01  2.724246060E+01  1.538371728E+02  1.249955995E+02  0.00000E+00  9.000E+00
       5     1     1     2   501     0  3.127751569E-01 -9.696803439E-01  1.421298673E+02  1.422128679E+02  4.750000000E+00  0.00000E+00  9.000E+00
      -5     1     1     2     0   503  4.953629789E+01 -8.525719813E+01  1.292928499E+02  1.626709506E+02  4.750000000E+00  0.00000E+00  9.000E+00
      21     1     1     2   511   502 -1.946708197E+01  6.372268081E+00 -8.181765640E-01  2.049981693E+01  5.697624175E-07  0.00000E+00  9.000E+00
#rwgt            1           9   8.9353606597786711E-002          12     2754413           0
</event>
<event>
      6   9999  3.45752E-01  1.46890E+01 -1.00000E+00  1.71164E-01
      21    -1     0     0   501   512  0.000000000E+00  0.000000000E+00  2.772534045E+03  2.772534045E+03  0.000000000E+00  0.00000E+00  9.000E+00
      21    -1     0     0   502   503  0.000000000E+00  0.000000000E+00 -7.904090154E+00  7.904090154E+00  0.000000000E+00  0.00000E+00  9.000E+00
      25     1     1     2     0     0 -1.190760508E+00 -1.016720038E+02  1.100200526E+03  1.111932106E+03  1.249527843E+02  0.00000E+00  9.000E+00
       5     1     1     2   501     0  1.502916213E+01  9.271740704E+01  1.475458617E+03  1.478452937E+03  4.750000000E+00  0.00000E+00  9.000E+00
      -5     1     1     2     0   503 -2.548308715E+00 -4.422081126E-01  4.105660043E+01  4.141130720E+01  4.750000000E+00  0.00000E+00  9.000E+00
      21     1     1     2   502   512 -1.129009291E+01  9.396804904E+00  1.479142113E+02  1.486417843E+02  2.697398305E-06  0.00000E+00  9.000E+00
#rwgt            1           9   1.9174516125436841E-002          12     2756286           0
</event>
<event>
      6   9999  3.45752E-01  3.23580E+01 -1.00000E+00  1.45743E-01
      21    -1     0     0   501   511  0.000000000E+00  0.000000000E+00  2.558210010E+01  2.558210010E+01  0.000000000E+00  0.00000E+00  9.000E+00
      21    -1     0     0   502   503  0.000000000E+00  0.000000000E+00 -9.995974178E+02  9.995974178E+02  0.000000000E+00  0.00000E+00  9.000E+00
      25     1     1     2     0     0 -6.584563278E+01 -7.656685500E+01 -7.433883561E+02  7.605621955E+02  1.250218968E+02  0.00000E+00  9.000E+00
       5     1     1     2   501     0 -1.990381423E+00 -1.634924778E+00  4.845799130E+00  7.258020835E+00  4.750000000E+00  0.00000E+00  9.000E+00
      -5     1     1     2     0   503  4.727157285E+01  5.321892838E+01 -1.684655770E+02  1.829482689E+02  4.750000000E+00  0.00000E+00  9.000E+00
      21     1     1     2   502   511  2.056444135E+01  2.498285140E+01 -6.700718376E+01  7.441103270E+01  1.651812370E-06  0.00000E+00  9.000E+00
#rwgt            1           9   8.9247699383105474E-005          12     2758482           0
</event>
<event>
      6   9999 -3.45752E-01  2.78387E+01 -1.00000E+00  1.49970E-01
      21    -1     0     0   501   502  0.000000000E+00  0.000000000E+00  1.848787915E+01  1.848787915E+01  0.000000000E+00  0.00000E+00  9.000E+00
      21    -1     0     0   502   512  0.000000000E+00  0.000000000E+00 -1.601137160E+03  1.601137160E+03  0.000000000E+00  0.00000E+00  9.000E+00
      25     1     1     2     0     0 -8.309143207E+01  1.351496028E+01 -6.358827414E+02  6.534971725E+02  1.249994140E+02  0.00000E+00  9.000E+00
       5     1     1     2   501     0  3.696970877E+00 -2.544057465E+01 -3.294416131E+01  4.205675566E+01  4.750000000E+00  0.00000E+00  9.000E+00
      -5     1     1     2     0   503  7.144014813E+01 -1.475249784E+01 -2.722043570E+02  2.818494376E+02  4.750000000E+00  0.00000E+00  9.000E+00
      21     1     1     2   503   512  7.954313065E+00  2.667811222E+01 -6.416180210E+02  6.422216732E+02  1.078959322E-05  0.00000E+00  9.000E+00
#rwgt            1           9  -3.7823896257935627E-002          12     2759761           0
</event>
<event>
      6   9999  3.45752E-01  7.47750E+00 -1.00000E+00  2.01553E-01
      21    -1     0     0   501   502  0.000000000E+00  0.000000000E+00  1.382597894E+01  1.382597894E+01  0.000000000E+00  0.00000E+00  9.000E+00
      21    -1     0     0   511   503  0.000000000E+00  0.000000000E+00 -8.290003575E+02  8.290003575E+02  0.000000000E+00  0.00000E+00  9.000E+00
      25     1     1     2     0     0 -4.393994969E+01 -3.516279749E+00 -3.612069639E+02  3.847595077E+02  1.250052982E+02  0.00000E+00  9.000E+00
       5     1     1     2   501     0  2.864381506E+00 -1.987126376E+00 -3.824612616E+01  3.869731281E+01  4.750000000E+00  0.00000E+00  9.000E+00
      -5     1     1     2     0   503  4.530379634E+01  1.167066766E+01 -3.780519197E+02  3.809651624E+02  4.750000000E+00  0.00000E+00  9.000E+00
      21     1     1     2   511   502 -4.228228154E+00 -6.167261533E+00 -3.766936878E+01  3.840435356E+01  4.768371582E-07  0.00000E+00  9.000E+00
#rwgt            1           9   6.9273612879580391E-005          12     2760957           0
</event>
<event>
      6   9999  3.45752E-01  2.81751E+00 -1.00000E+00  2.84240E-01
      21    -1     0     0   501   512  0.000000000E+00  0.000000000E+00  2.404699583E+02  2.404699583E+02  0.000000000E+00  0.00000E+00  9.000E+00
      21    -1     0     0   502   503  0.000000000E+00  0.000000000E+00 -7.686146215E+02  7.686146215E+02  0.000000000E+00  0.00000E+00  9.000E+00
      25     1     1     2     0     0 -5.811388370E+00 -1.695438452E+00 -6.257346904E+02  6.381274269E+02  1.250042536E+02  0.00000E+00  9.000E+00
       5     1     1     2   501     0 -3.190942747E-01 -1.285744487E+00  9.692354982E-01  5.025622100E+00  4.750000000E+00  0.00000E+00  9.000E+00
      -5     1     1     2     0   503  7.556710712E+00  5.513164876E-01 -1.344983013E+02  1.347952647E+02  4.750000000E+00  0.00000E+00  9.000E+00
      21     1     1     2   502   512 -1.426228067E+00  2.429866452E+00  2.311190930E+02  2.311362661E+02  0.000000000E+00  0.00000E+00  9.000E+00
#rwgt            1           9   2.3673652542929066E-002          12     2763996           0
</event>
<event>
      6   9999  3.45752E-01  6.41048E+01 -1.00000E+00  1.29256E-01
      21    -1     0     0   502   503  0.000000000E+00  0.000000000E+00  1.517238840E+02  1.517238840E+02  0.000000000E+00  0.00000E+00  9.000E+00
      21    -1     0     0   501   511  0.000000000E+00  0.000000000E+00 -1.332268383E+02  1.332268383E+02  0.000000000E+00  0.00000E+00  9.000E+00
      25     1     1     2     0     0 -1.202042955E+01 -6.536297028E+01  1.822249709E+01  1.427353485E+02  1.249980468E+02  0.00000E+00  9.000E+00
       5     1     1     2   501     0 -9.926869222E-01 -2.174114575E+00  6.447665295E+00  8.357457105E+00  4.750000000E+00  0.00000E+00  9.000E+00
      -5     1     1     2     0   503 -1.365221884E+01  9.241414932E+00  4.733996849E+01  5.035297355E+01  4.750000000E+00  0.00000E+00  9.000E+00
      21     1     1     2   502   511  2.666533531E+01  5.829566992E+01 -5.351308520E+01  8.350494312E+01  1.348699152E-06  0.00000E+00  9.000E+00
#rwgt            1           9   1.8904529424417090E-003          12     2769517           0
</event>
<event>
      6   9999  3.45752E-01  5.19890E+01 -1.00000E+00  1.33887E-01
      21    -1     0     0   501   512  0.000000000E+00  0.000000000E+00  4.245287139E+00  4.245287139E+00  0.000000000E+00  0.00000E+00  9.000E+00
      21    -1     0     0   502   503  0.000000000E+00  0.000000000E+00 -4.674140635E+03  4.674140635E+03  0.000000000E+00  0.00000E+00  9.000E+00
      25     1     1     2     0     0  2.393861416E+01 -5.189103802E+00 -4.066056765E+03  4.068051451E+03  1.250000479E+02  0.00000E+00  9.000E+00
       5     1     1     2   501     0  3.204416484E+00  6.133867776E-01 -2.347970044E+01  2.417650432E+01  4.750000000E+00  0.00000E+00  9.000E+00
      -5     1     1     2     0   503  2.266981217E+01  1.945990443E+01 -2.097647517E+02  2.119349471E+02  4.750000000E+00  0.00000E+00  9.000E+00
      21     1     1     2   502   512 -4.981284282E+01 -1.488418741E+01 -3.705941314E+02  3.742230198E+02  9.344061824E-06  0.00000E+00  9.000E+00
#rwgt            1           9   1.3096511531509908E-004          12     2770351           0
</event>
<event>
      6   9999  3.45752E-01  4.94043E+01 -1.00000E+00  1.35067E-01
       1    -1     0     0   501     0  0.000000000E+00  0.000000000E+00  1.421686999E+03  1.421686999E+03  0.000000000E+00  0.00000E+00  9.000E+00
      21    -1     0     0   511   502  0.000000000E+00  0.000000000E+00 -2.006648983E+01  2.006648983E+01  0.000000000E+00  0.00000E+00  9.000E+00
      25     1     1     2     0     0 -3.553342585E+01 -2.754124745E+01  2.701443127E+02  3.010382330E+02  1.249996935E+02  0.00000E+00  9.000E+00
       5     1     1     2   501     0 -2.255540270E+00  1.759178117E+01  6.802804148E+01  7.046229598E+01  4.750000000E+00  0.00000E+00  9.000E+00
      -5     1     1     2     0   502  2.048379707E+01  5.622385071E+01  3.511654852E+02  3.562589899E+02  4.750000000E+00  0.00000E+00  9.000E+00
       1     1     1     2   511     0  1.730516905E+01 -4.627438443E+01  7.122826702E+02  7.139939704E+02  1.078959322E-05  0.00000E+00  9.000E+00
#rwgt            1           2   6.8186144929908987E-004          12     2771077           0
</event>
<event>
      6   9999  3.45752E-01  8.52800E+00 -1.00000E+00  1.94785E-01
       2    -1     0     0   501     0  0.000000000E+00  0.000000000E+00  1.511579206E+03  1.511579206E+03  0.000000000E+00  0.00000E+00  9.000E+00
      21    -1     0     0   502   503  0.000000000E+00  0.000000000E+00 -1.394787452E+03  1.394787452E+03  0.000000000E+00  0.00000E+00  9.000E+00
      25     1     1     2     0     0 -9.007783227E+00  3.120182636E+01 -9.070683445E+01  1.578210959E+02  1.250002975E+02  0.00000E+00  9.000E+00
       5     1     1     2   501     0 -4.425997487E+00 -2.914694463E+00  2.804708049E+01  2.893589677E+01  4.750000000E+00  0.00000E+00  9.000E+00
      -5     1     1     2     0   503  2.194526151E+01 -2.881764072E+01 -1.269803828E+03  1.270329239E+03  4.750000000E+00  0.00000E+00  9.000E+00
       2     1     1     2   502     0 -8.511480794E+00  5.305088321E-01  1.449255336E+03  1.449280427E+03  2.157918644E-05  0.00000E+00  9.000E+00
#rwgt            1           9   1.8274472047848502E-004          12     2771218           0
</event>
<event>
      6   9999  3.45752E-01  1.09428E+01 -1.00000E+00  1.83164E-01
      21    -1     0     0   501   502  0.000000000E+00  0.000000000E+00  1.587207953E+01  1.587207953E+01  0.000000000E+00  0.00000E+00  9.000E+00
      21    -1     0     0   502   511  0.000000000E+00  0.000000000E+00 -1.112694558E+03  1.112694558E+03  0.000000000E+00  0.00000E+00  9.000E+00
      25     1     1     2     0     0  4.503089706E+00 -2.579818646E+01 -8.078432923E+02  8.178757350E+02  1.249964348E+02  0.00000E+00  9.000E+00
       5     1     1     2   501     0 -1.862415050E+00  1.101140355E+00  8.708149960E+00  1.015260930E+01  4.750000000E+00  0.00000E+00  9.000E+00
      -5     1     1     2     0   503 -1.184190925E+01  1.877406825E+01 -9.981184218E+01  1.023604552E+02  4.750000000E+00  0.00000E+00  9.000E+00
      21     1     1     2   503   511  9.201234596E+00  5.922977858E+00 -1.978754939E+02  1.981778380E+02  2.697398305E-06  0.00000E+00  9.000E+00
#rwgt            1           9   1.6402912338549785E-003          12     2775882           0
</event>
<event>
      6   9999 -3.45752E-01  1.03032E+01 -1.00000E+00  1.85837E-01
      21    -1     0     0   501   502  0.000000000E+00  0.000000000E+00  1.105738117E+01  1.105738117E+01  0.000000000E+00  0.00000E+00  9.000E+00
      21    -1     0     0   512   503  0.000000000E+00  0.000000000E+00 -9.862754932E+02  9.862754932E+02  0.000000000E+00  0.00000E+00  9.000E+00
      25     1     1     2     0     0 -2.020342131E+01 -1.836417295E+01 -8.570556695E+02  8.665535207E+02  1.250006504E+02  0.00000E+00  9.000E+00
       5     1     1     2   501     0 -6.577957531E-01  1.187549076E+00  8.188237944E-01  5.007588288E+00  4.750000000E+00  0.00000E+00  9.000E+00
      -5     1     1     2     0   503  1.056123093E+01  1.743456696E+01 -3.235261291E+01  3.853255488E+01  4.750000000E+00  0.00000E+00  9.000E+00
      21     1     1     2   512   502  1.029998613E+01 -2.579430865E-01 -8.662865345E+01  8.723921049E+01  9.536743164E-07  0.00000E+00  9.000E+00
#rwgt            1           9  -1.8589502796677326E-004          12     2778545           0
</event>
<event>
      6   9999  3.45752E-01  1.65555E+01 -1.00000E+00  1.66740E-01
      21    -1     0     0   501   502  0.000000000E+00  0.000000000E+00  2.972056486E+01  2.972056486E+01  0.000000000E+00  0.00000E+00  9.000E+00
      21    -1     0     0   502   511  0.000000000E+00  0.000000000E+00 -1.665943727E+03  1.665943727E+03  0.000000000E+00  0.00000E+00  9.000E+00
      25     1     1     2     0     0  1.039863897E+01  1.225924053E+01 -9.792248297E+02  9.873021342E+02  1.250032653E+02  0.00000E+00  9.000E+00
       5     1     1     2   501     0  7.383389093E-01 -3.200304503E+00  2.514459807E+01  2.579923265E+01  4.750000000E+00  0.00000E+00  9.000E+00
      -5     1     1     2     0   503  4.134334451E+00 -2.665956402E+00 -1.394979855E+02  1.396654950E+02  4.750000000E+00  0.00000E+00  9.000E+00
      21     1     1     2   503   511 -1.527131233E+01 -6.392979620E+00 -5.426449445E+02  5.428974295E+02  7.629394531E-06  0.00000E+00  9.000E+00
#rwgt            1           9   2.2932859636155644E-006          12     2781093           0
</event>
<event>
      6   9999 -3.45752E-01  4.50320E+01 -1.00000E+00  1.37265E-01
      21    -1     0     0   502   512  0.000000000E+00  0.000000000E+00  1.560190603E+02  1.560190603E+02  0.000000000E+00  0.00000E+00  9.000E+00
      21    -1     0     0   501   502  0.000000000E+00  0.000000000E+00 -7.896157549E+02  7.896157549E+02  0.000000000E+00  0.00000E+00  9.000E+00
      25     1     1     2     0     0  2.210835745E+01 -8.722064014E+00 -7.346220113E+02  7.455588332E+02  1.249944819E+02  0.00000E+00  9.000E+00
       5     1     1     2   501     0  1.650963779E+00 -3.038234934E-01 -8.022563846E+00  9.473226524E+00  4.750000000E+00  0.00000E+00  9.000E+00
      -5     1     1     2     0   503  2.077863211E+01  2.373812638E+00 -3.424175945E+01  4.040355342E+01  4.750000000E+00  0.00000E+00  9.000E+00
      21     1     1     2   503   512 -4.453795334E+01  6.652074869E+00  1.432896399E+02  1.501992020E+02  3.814697266E-06  0.00000E+00  9.000E+00
#rwgt            1           9  -1.3446427429162014E-004          12     2783534           0
</event>
<event>
      6   9999  3.45752E-01  2.49125E+01 -1.00000E+00  1.53255E-01
       2    -1     0     0   501     0  0.000000000E+00  0.000000000E+00  9.729755404E+02  9.729755404E+02  0.000000000E+00  0.00000E+00  9.000E+00
      21    -1     0     0   502   503  0.000000000E+00  0.000000000E+00 -1.468433396E+03  1.468433396E+03  0.000000000E+00  0.00000E+00  9.000E+00
      25     1     1     2     0     0  3.718130105E+01  5.614720479E+01 -1.081698002E+03  1.090976883E+03  1.250001401E+02  0.00000E+00  9.000E+00
       5     1     1     2   501     0 -2.187770418E+01 -1.116181685E+01  5.568258638E+01  6.104369764E+01  4.750000000E+00  0.00000E+00  9.000E+00
      -5     1     1     2     0   503 -3.287611599E+01 -6.264438602E+01 -3.759299634E+02  3.825585681E+02  4.750000000E+00  0.00000E+00  9.000E+00
       2     1     1     2   502     0  1.757251911E+01  1.765899808E+01  9.064875232E+02  9.068297874E+02  1.078959322E-05  0.00000E+00  9.000E+00
#rwgt            1           9   4.5354244439938258E-003          12     2784350           0
</event>
<event>
      6   9999  3.45752E-01  2.68406E+01 -1.00000E+00  1.51034E-01
      21    -1     0     0   501   502  0.000000000E+00  0.000000000E+00  3.379547728E+01  3.379547728E+01  0.000000000E+00  0.00000E+00  9.000E+00
       1    -1     0     0   502     0  0.000000000E+00  0.000000000E+00 -1.591688267E+03  1.591688267E+03  0.000000000E+00  0.00000E+00  9.000E+00
      25     1     1     2     0     0 -1.152120140E+01 -1.761566187E+01 -1.146625900E+03  1.153611256E+03  1.249997042E+02  0.00000E+00  9.000E+00
       5     1     1     2   501     0 -5.913908148E+00  1.516142570E+00  2.875622441E+01  2.977844757E+01  4.750000000E+00  0.00000E+00  9.000E+00
      -5     1     1     2     0   503 -6.011895330E+00  3.036043849E+00 -2.774594097E+01  2.894408727E+01  4.750000000E+00  0.00000E+00  9.000E+00
       1     1     1     2   503     0  2.344700488E+01  1.306347546E+01 -4.122771730E+02  4.131499532E+02  7.629394531E-06  0.00000E+00  9.000E+00
#rwgt            1           9  0.33167165937704446               12     2787046           0
</event>
<event>
      6   9999  3.45752E-01  3.05348E+01 -1.00000E+00  1.47343E-01
      21    -1     0     0   502   503  0.000000000E+00  0.000000000E+00  1.167049967E+01  1.167049967E+01  0.000000000E+00  0.00000E+00  9.000E+00
      21    -1     0     0   501   511  0.000000000E+00  0.000000000E+00 -1.698270607E+03  1.698270607E+03  0.000000000E+00  0.00000E+00  9.000E+00
      25     1     1     2     0     0 -6.229566748E+00  1.106493721E+01 -3.763283753E+02  3.967479027E+02  1.249984476E+02  0.00000E+00  9.000E+00
       5     1     1     2   501     0  1.255560920E+00 -2.296716311E+00 -7.739936598E+01  7.758914675E+01  4.750000000E+00  0.00000E+00  9.000E+00
      -5     1     1     2     0   503  5.264850956E+00 -3.930163436E+01 -3.619432422E+02  3.641398223E+02  4.750000000E+00  0.00000E+00  9.000E+00
      21     1     1     2   502   511 -2.908451281E-01  3.053341346E+01 -8.709291242E+02  8.714642352E+02  1.525878906E-05  0.00000E+00  9.000E+00
#rwgt            1           9   2.2618895536185035E-003          12     2788665           0
</event>
<event>
      6   9999  3.45752E-01  1.24354E+02 -1.00000E+00  1.16545E-01
      21    -1     0     0   502   512  0.000000000E+00  0.000000000E+00  4.389012789E+01  4.389012789E+01  0.000000000E+00  0.00000E+00  9.000E+00
      21    -1     0     0   501   502  0.000000000E+00  0.000000000E+00 -1.400182246E+03  1.400182246E+03  0.000000000E+00  0.00000E+00  9.000E+00
      25     1     1     2     0     0 -9.937315756E+01 -2.831869445E+01 -2.596661192E+02  3.061520752E+02  1.250025072E+02  0.00000E+00  9.000E+00
       5     1     1     2   501     0 -2.317395721E+01 -6.943133224E+01 -6.926819234E+02  6.965547729E+02  4.750000000E+00  0.00000E+00  9.000E+00
      -5     1     1     2     0   503  4.651158797E+01 -6.501924138E-01 -1.713559743E+02  1.776208969E+02  4.750000000E+00  0.00000E+00  9.000E+00
      21     1     1     2   503   512  7.603552681E+01  9.840021911E+01 -2.325881013E+02  2.637446290E+02  0.000000000E+00  0.00000E+00  9.000E+00
#rwgt            1           9   3.6194884662705461E-004          12     2790149           0
</event>
<event>
      6   9999  3.45752E-01  4.47966E+01 -1.00000E+00  1.37392E-01
      21    -1     0     0   511   502  0.000000000E+00  0.000000000E+00  6.629796906E+02  6.629796906E+02  0.000000000E+00  0.00000E+00  9.000E+00
      21    -1     0     0   502   503  0.000000000E+00  0.000000000E+00 -1.280753409E+03  1.280753409E+03  0.000000000E+00  0.00000E+00  9.000E+00
      25     1     1     2     0     0 -4.165731537E+01 -6.234935430E+01 -1.197919596E+03  1.206755607E+03  1.249998512E+02  0.00000E+00  9.000E+00
       5     1     1     2   501     0  5.603087228E+00 -1.509940854E+00  5.672460000E+02  5.672955681E+02  4.750000000E+00  0.00000E+00  9.000E+00
      -5     1     1     2     0   503  1.663468691E+01  2.349078050E+01 -6.978742201E+01  7.563978020E+01  4.750000000E+00  0.00000E+00  9.000E+00
      21     1     1     2   511   501  1.941954123E+01  4.036851466E+01  8.268729910E+01  9.404214475E+01  9.536743164E-07  0.00000E+00  9.000E+00
#rwgt            1           9   9.6619032984526871E-005          12     2791058           0
</event>
<event>
      6   9999  3.45752E-01  3.86521E+00 -1.00000E+00  2.50972E-01
      21    -1     0     0   501   502  0.000000000E+00  0.000000000E+00  1.661691518E+01  1.661691518E+01  0.000000000E+00  0.00000E+00  9.000E+00
      21    -1     0     0   502   512  0.000000000E+00  0.000000000E+00 -4.230343592E+02  4.230343592E+02  0.000000000E+00  0.00000E+00  9.000E+00
      25     1     1     2     0     0 -7.914484695E+00 -1.468740050E+01 -2.460456113E+02  2.764821058E+02  1.250022128E+02  0.00000E+00  9.000E+00
       5     1     1     2   501     0  3.395971611E+00  4.035031127E+00 -2.934040879E+01  3.018668891E+01  4.750000000E+00  0.00000E+00  9.000E+00
      -5     1     1     2     0   503  2.756207444E+00  7.212290441E+00 -2.087589168E+01  2.275915566E+01  4.750000000E+00  0.00000E+00  9.000E+00
      21     1     1     2   503   512  1.762305640E+00  3.440078931E+00 -1.101555323E+02  1.102233240E+02  1.348699152E-06  0.00000E+00  9.000E+00
#rwgt            1           9  0.53071672733913056               12     2794193           0
</event>
<event>
      6   9999 -3.45752E-01  6.26776E+00 -1.00000E+00  2.11450E-01
      21    -1     0     0   501   502  0.000000000E+00  0.000000000E+00  2.608572541E+01  2.608572541E+01  0.000000000E+00  0.00000E+00  9.000E+00
       2    -1     0     0   502     0  0.000000000E+00  0.000000000E+00 -1.109375582E+03  1.109375582E+03  0.000000000E+00  0.00000E+00  9.000E+00
      25     1     1     2     0     0 -6.250325278E+01 -5.121659317E+01 -4.549990343E+02  4.787236300E+02  1.249895861E+02  0.00000E+00  9.000E+00
       5     1     1     2   501     0  3.670484316E+00  5.602707369E-01  1.014195937E+01  1.179865239E+01  4.750000000E+00  0.00000E+00  9.000E+00
      -5     1     1     2     0   503  5.967122048E+01  5.686775200E+01 -5.367522769E+02  5.430655255E+02  4.750000000E+00  0.00000E+00  9.000E+00
       2     1     1     2   503     0 -8.384520092E-01 -6.211429567E+00 -1.016805047E+02  1.018734995E+02  1.907348633E-06  0.00000E+00  9.000E+00
#rwgt            1           9  -6.2788464210163861E-003          12     2798767           0
</event>
<event>
      6   9999  3.45752E-01  6.17349E+01 -1.00000E+00  1.30064E-01
      -2    -1     0     0     0   502  0.000000000E+00  0.000000000E+00  7.796855584E+01  7.796855584E+01  0.000000000E+00  0.00000E+00  9.000E+00
       2    -1     0     0   511     0  0.000000000E+00  0.000000000E+00 -2.240750466E+03  2.240750466E+03  0.000000000E+00  0.00000E+00  9.000E+00
      25     1     1     2     0     0 -2.810102337E+02  2.357898563E+02 -1.309014439E+03  1.365176653E+03  1.249995356E+02  0.00000E+00  9.000E+00
       5     1     1     2   501     0 -6.428301442E+00 -2.978777323E+01 -1.559995304E+01  3.456234264E+01  4.750000000E+00  0.00000E+00  9.000E+00
      -5     1     1     2     0   502  2.496961524E+02 -1.571481752E+02 -5.487472623E+02  6.230488246E+02  4.750000000E+00  0.00000E+00  9.000E+00
      21     1     1     2   511   501  3.774238270E+01 -4.885390777E+01 -2.894202562E+02  2.959312022E+02  3.814697266E-06  0.00000E+00  9.000E+00
#rwgt            1           3   2.2597459226129525E-004          12     2803330           0
</event>
<event>
      6   9999  3.45752E-01  2.11618E+01 -1.00000E+00  1.58361E-01
      21    -1     0     0   501   502  0.000000000E+00  0.000000000E+00  3.540333879E+01  3.540333879E+01  0.000000000E+00  0.00000E+00  9.000E+00
      21    -1     0     0   502   512  0.000000000E+00  0.000000000E+00 -2.079172944E+03  2.079172944E+03  0.000000000E+00  0.00000E+00  9.000E+00
      25     1     1     2     0     0  3.249083508E+01 -1.418459497E+01 -4.569280165E+02  4.750425516E+02  1.250014258E+02  0.00000E+00  9.000E+00
       5     1     1     2   501     0  9.065783107E+00  1.127834349E+01  2.373362675E+01  2.819994670E+01  4.750000000E+00  0.00000E+00  9.000E+00
      -5     1     1     2     0   503 -2.290875905E+01  1.291012028E+01 -6.938720385E+02  6.943863843E+02  4.750000000E+00  0.00000E+00  9.000E+00
      21     1     1     2   503   512 -1.864785914E+01 -1.000386880E+01 -9.167031768E+02  9.169474000E+02  1.525878906E-05  0.00000E+00  9.000E+00
#rwgt            1           9   9.3462695900632588E-004          12     2806448           0
</event>
<event>
      6   9999  3.45752E-01  9.84718E+00 -1.00000E+00  1.87901E-01
      21    -1     0     0   501   502  0.000000000E+00  0.000000000E+00  4.720929338E+01  4.720929338E+01  0.000000000E+00  0.00000E+00  9.000E+00
      21    -1     0     0   511   503  0.000000000E+00  0.000000000E+00 -1.414882540E+03  1.414882540E+03  0.000000000E+00  0.00000E+00  9.000E+00
      25     1     1     2     0     0  7.070261183E+00  1.329470207E+01 -1.167220440E+03  1.173991076E+03  1.249990096E+02  0.00000E+00  9.000E+00
       5     1     1     2   501     0  3.496582297E+00 -7.238178401E+00  4.279970460E+01  4.380632977E+01  4.750000000E+00  0.00000E+00  9.000E+00
      -5     1     1     2     0   503 -1.113838825E+01  3.774058468E+00 -1.337264424E+02  1.343265837E+02  4.750000000E+00  0.00000E+00  9.000E+00
      21     1     1     2   511   502  5.715447739E-01 -9.830582138E+00 -1.095260682E+02  1.099678436E+02  1.348699152E-06  0.00000E+00  9.000E+00
#rwgt            1           9   2.1435346768936877E-002          12     2808604           0
</event>
<event>
      6   9999  3.45752E-01  3.39835E+02 -1.00000E+00  1.01481E-01
      21    -1     0     0   512   502  0.000000000E+00  0.000000000E+00  2.407238027E+02  2.407238027E+02  0.000000000E+00  0.00000E+00  9.000E+00
      21    -1     0     0   502   503  0.000000000E+00  0.000000000E+00 -1.894471976E+03  1.894471976E+03  0.000000000E+00  0.00000E+00  9.000E+00
      25     1     1     2     0     0 -3.464626640E+02  3.539309200E+01 -1.148862970E+03  1.206979900E+03  1.250012334E+02  0.00000E+00  9.000E+00
       5     1     1     2   501     0  8.487806612E+01 -3.014913023E+02 -3.358728170E+02  4.592759554E+02  4.750000000E+00  0.00000E+00  9.000E+00
      -5     1     1     2     0   503  3.719161861E+01  1.088146898E+01 -1.192535248E+02  1.254814270E+02  4.750000000E+00  0.00000E+00  9.000E+00
      21     1     1     2   512   501  2.243929793E+02  2.552167413E+02 -4.975886207E+01  3.434584961E+02  3.873843386E-06  0.00000E+00  9.000E+00
#rwgt            1           9   5.8890799769457224E-005          12     2812720           0
</event>
<event>
      6   9999  3.45752E-01  3.86644E+00 -1.00000E+00  2.50943E-01
      21    -1     0     0   501   502  0.000000000E+00  0.000000000E+00  1.709614381E+01  1.709614381E+01  0.000000000E+00  0.00000E+00  9.000E+00
      21    -1     0     0   502   511  0.000000000E+00  0.000000000E+00 -9.249206704E+02  9.249206704E+02  0.000000000E+00  0.00000E+00  9.000E+00
      25     1     1     2     0     0  6.964890148E+00  6.050018585E+00 -6.996432118E+02  7.107814840E+02  1.249983271E+02  0.00000E+00  9.000E+00
       5     1     1     2   501     0 -4.054064732E+00  7.903583778E-01  1.031058989E+01  1.208018506E+01  4.750000000E+00  0.00000E+00  9.000E+00
      -5     1     1     2     0   503 -4.277886217E+00 -1.045707328E+01 -1.909819296E+02  1.913747910E+02  4.750000000E+00  0.00000E+00  9.000E+00
      21     1     1     2   503   511  1.367060801E+00  3.616696312E+00 -2.750997512E+01  2.778035419E+01  0.000000000E+00  0.00000E+00  9.000E+00
#rwgt            1           9   2.5072055949806558               12     2812925           0
</event>
<event>
      6   9999 -3.45752E-01  7.15440E+00 -1.00000E+00  2.03938E-01
      21    -1     0     0   501   512  0.000000000E+00  0.000000000E+00  3.249886960E+01  3.249886960E+01  0.000000000E+00  0.00000E+00  9.000E+00
      21    -1     0     0   502   503  0.000000000E+00  0.000000000E+00 -1.060319679E+03  1.060319679E+03  0.000000000E+00  0.00000E+00  9.000E+00
      25     1     1     2     0     0 -1.089072657E+01 -1.632750104E+00 -1.020155678E+03  1.027844821E+03  1.250043782E+02  0.00000E+00  9.000E+00
       5     1     1     2   501     0  4.212649363E-01 -2.064632599E+00  2.032055642E+01  2.097445316E+01  4.750000000E+00  0.00000E+00  9.000E+00
      -5     1     1     2     0   503  3.315310474E+00  3.637815638E+00 -3.398246168E+01  3.466403306E+01  4.750000000E+00  0.00000E+00  9.000E+00
      21     1     1     2   502   512  7.154151156E+00  5.956706464E-02  5.996774219E+00  9.335241187E+00  3.862822472E-07  0.00000E+00  9.000E+00
#rwgt            1           9  -9.2947167770379067E-006          12     2818018           0
</event>
<event>
      6   9999  3.45752E-01  9.07253E+00 -1.00000E+00  1.91759E-01
      21    -1     0     0   511   503  0.000000000E+00  0.000000000E+00  7.430016781E+01  7.430016781E+01  0.000000000E+00  0.00000E+00  9.000E+00
      21    -1     0     0   501   502  0.000000000E+00  0.000000000E+00 -1.283421909E+03  1.283421909E+03  0.000000000E+00  0.00000E+00  9.000E+00
      25     1     1     2     0     0 -5.051724215E-01 -1.486125873E+01 -8.713563154E+02  8.804034425E+02  1.250091241E+02  0.00000E+00  9.000E+00
       5     1     1     2   501     0 -8.220026697E+00  5.818396919E-02 -1.357394877E+02  1.360710963E+02  4.750000000E+00  0.00000E+00  9.000E+00
      -5     1     1     2     0   503  1.446734988E+01  7.778935263E+00 -2.710705948E+02  2.716093627E+02  4.750000000E+00  0.00000E+00  9.000E+00
      21     1     1     2   511   502 -5.742150764E+00  7.024139502E+00  6.904465670E+01  6.963817524E+01  9.536743164E-07  0.00000E+00  9.000E+00
#rwgt            1           9   2605.6352416502573               12     2821584           0
</event>
<event>
      6   9999  3.45752E-01  2.24494E+01 -1.00000E+00  1.56473E-01
      21    -1     0     0   501   502  0.000000000E+00  0.000000000E+00  3.648478207E+03  3.648478207E+03  0.000000000E+00  0.00000E+00  9.000E+00
      21    -1     0     0   512   503  0.000000000E+00  0.000000000E+00 -3.474618376E+01  3.474618376E+01  0.000000000E+00  0.00000E+00  9.000E+00
      25     1     1     2     0     0  1.694600946E+02  1.060439958E+02  2.300009262E+03  2.312061804E+03  1.250005193E+02  0.00000E+00  9.000E+00
       5     1     1     2   501     0 -4.963159756E-01 -1.081529148E+00  7.503578259E+02  7.503738038E+02  4.750000000E+00  0.00000E+00  9.000E+00
      -5     1     1     2     0   503 -1.819049389E+02 -8.661852894E+01  5.633784907E+02  5.983394209E+02  4.750000000E+00  0.00000E+00  9.000E+00
      21     1     1     2   512   502  1.294116031E+01 -1.834393773E+01 -1.355464290E-02  2.244936225E+01  1.015085293E-06  0.00000E+00  9.000E+00
#rwgt            1           9   1.1232015800064826E-003          12     2824203           0
</event>
<event>
      6   9999  3.45752E-01  5.32824E+00 -1.00000E+00  2.21502E-01
      21    -1     0     0   511   502  0.000000000E+00  0.000000000E+00  7.632473287E+01  7.632473287E+01  0.000000000E+00  0.00000E+00  9.000E+00
      21    -1     0     0   502   503  0.000000000E+00  0.000000000E+00 -1.773870539E+02  1.773870539E+02  0.000000000E+00  0.00000E+00  9.000E+00
      25     1     1     2     0     0 -4.366079572E+00  2.116433231E-01 -1.429737458E+02  1.899619026E+02  1.249997001E+02  0.00000E+00  9.000E+00
       5     1     1     2   501     0  1.311919742E+00 -1.039098165E+00  1.532493476E+01  1.613124247E+01  4.750000000E+00  0.00000E+00  9.000E+00
      -5     1     1     2     0   503  8.363578279E+00  3.800427263E-01 -8.066228399E+00  1.255867886E+01  4.750000000E+00  0.00000E+00  9.000E+00
      21     1     1     2   511   501 -5.309418449E+00  4.474121159E-01  3.465271837E+01  3.505996281E+01  8.259061849E-07  0.00000E+00  9.000E+00
#rwgt            1           9   1.4282333866260895E-004          12     2827145           0
</event>
<event>
      6   9999  3.45752E-01  3.99110E+01 -1.00000E+00  1.40242E-01
      21    -1     0     0   501   502  0.000000000E+00  0.000000000E+00  4.235748066E+02  4.235748066E+02  0.000000000E+00  0.00000E+00  9.000E+00
      21    -1     0     0   512   503  0.000000000E+00  0.000000000E+00 -4.307704867E+01  4.307704867E+01  0.000000000E+00  0.00000E+00  9.000E+00
      25     1     1     2     0     0  2.500686721E+01 -5.282590316E+01  2.419622950E+02  2.784236662E+02  1.247319776E+02  0.00000E+00  9.000E+00
       5     1     1     2   501     0  4.430543833E+00  1.492170545E+01  2.806925851E+01  3.244584388E+01  4.750000000E+00  0.00000E+00  9.000E+00
      -5     1     1     2     0   503 -6.527649448E+01  2.034148363E+01  8.138782264E+01  1.064017710E+02  4.750000000E+00  0.00000E+00  9.000E+00
      21     1     1     2   512   502  3.583908343E+01  1.756271408E+01  2.907838178E+01  4.938057426E+01  4.768371582E-07  0.00000E+00  9.000E+00
#rwgt            1           9   4.4152793972592130               12     2830796           0
</event>
<event>
      6   9999  3.45752E-01  2.73317E+00 -1.00000E+00  2.87939E-01
      21    -1     0     0   511   502  0.000000000E+00  0.000000000E+00  4.173788842E+00  4.173788842E+00  0.000000000E+00  0.00000E+00  9.000E+00
      21    -1     0     0   502   503  0.000000000E+00  0.000000000E+00 -2.945497413E+03  2.945497413E+03  0.000000000E+00  0.00000E+00  9.000E+00
      25     1     1     2     0     0  1.440565471E-01  2.192261135E+01 -1.663083794E+03  1.667918616E+03  1.249967291E+02  0.00000E+00  9.000E+00
       5     1     1     2   501     0  5.130365103E-01 -2.666859203E+00 -3.103293835E+00  6.290332033E+00  4.750000000E+00  0.00000E+00  9.000E+00
      -5     1     1     2     0   503 -4.311849066E-01 -2.197956654E+01 -1.244715936E+03  1.244919119E+03  4.750000000E+00  0.00000E+00  9.000E+00
      21     1     1     2   511   501 -2.259081508E-01  2.723814396E+00 -3.042059960E+01  3.054313474E+01  0.000000000E+00  0.00000E+00  9.000E+00
#rwgt            1           9   5.6604367683136467E-002          12     2831759           0
</event>
<event>
      6   9999  3.45752E-01  8.84352E+00 -1.00000E+00  1.92997E-01
      21    -1     0     0   501   502  0.000000000E+00  0.000000000E+00  7.335782936E+00  7.335782936E+00  0.000000000E+00  0.00000E+00  9.000E+00
      21    -1     0     0   512   503  0.000000000E+00  0.000000000E+00 -1.382647445E+03  1.382647445E+03  0.000000000E+00  0.00000E+00  9.000E+00
      25     1     1     2     0     0 -6.551613043E+00 -3.675866206E+00 -6.675554739E+02  6.791990836E+02  1.249985951E+02  0.00000E+00  9.000E+00
       5     1     1     2   501     0 -3.562588670E-01 -9.675109391E-01 -4.930043986E+00  6.923209624E+00  4.750000000E+00  0.00000E+00  9.000E+00
      -5     1     1     2     0   503  6.879849610E+00 -4.200098309E+00 -4.438375241E+01  4.535915712E+01  4.750000000E+00  0.00000E+00  9.000E+00
      21     1     1     2   512   502  2.802230011E-02  8.843475455E+00 -6.584423915E+02  6.585017773E+02  7.629394531E-06  0.00000E+00  9.000E+00
#rwgt            1           9   8.6854701914425194E-004          12     2838056           0
</event>
<event>
      6   9999  3.45752E-01  7.01999E+00 -1.00000E+00  2.04981E-01
      21    -1     0     0   501   511  0.000000000E+00  0.000000000E+00  2.362143986E+01  2.362143986E+01  0.000000000E+00  0.00000E+00  9.000E+00
      21    -1     0     0   502   503  0.000000000E+00  0.000000000E+00 -1.015211417E+03  1.015211417E+03  0.000000000E+00  0.00000E+00  9.000E+00
      25     1     1     2     0     0  5.354238976E+00 -2.473145020E+01 -9.169845231E+02  9.258110805E+02  1.250009144E+02  0.00000E+00  9.000E+00
       5     1     1     2   501     0  6.371646153E+00 -3.032135631E+00  1.558413700E+01  1.775442331E+01  4.750000000E+00  0.00000E+00  9.000E+00
      -5     1     1     2     0   503 -9.699712320E+00  2.104235491E+01 -6.827171721E+01  7.225271614E+01  4.750000000E+00  0.00000E+00  9.000E+00
      21     1     1     2   502   511 -2.026172808E+00  6.721230921E+00 -2.191787407E+01  2.301463719E+01  4.129530925E-07  0.00000E+00  9.000E+00
#rwgt            1           9   4.3684850807863509E-004          12     2840244           0
</event>
<event>
      6   9999 -3.45752E-01  3.30251E+00 -1.00000E+00  2.66436E-01
      21    -1     0     0   501   512  0.000000000E+00  0.000000000E+00  3.212814873E+02  3.212814873E+02  0.000000000E+00  0.00000E+00  9.000E+00
      21    -1     0     0   502   503  0.000000000E+00  0.000000000E+00 -1.047188146E+03  1.047188146E+03  0.000000000E+00  0.00000E+00  9.000E+00
      25     1     1     2     0     0 -4.322344552E+01 -4.703822617E+01 -9.409690486E+02  9.513826304E+02  1.250011918E+02  0.00000E+00  9.000E+00
       5     1     1     2   501     0 -6.882528675E+00 -1.690976673E+00  3.101191887E+01  3.216411377E+01  4.750000000E+00  0.00000E+00  9.000E+00
      -5     1     1     2     0   503  5.064859496E+01  5.198682894E+01 -8.725610184E+01  1.135962163E+02  4.750000000E+00  0.00000E+00  9.000E+00
      21     1     1     2   502   512 -5.426207618E-01 -3.257626092E+00  2.713065732E+02  2.713266725E+02  3.814697266E-06  0.00000E+00  9.000E+00
#rwgt            1           9  -1.0457362246535963E-002          12     2844333           0
</event>
<event>
      6   9999  3.45752E-01  1.38457E+01 -1.00000E+00  1.73441E-01
      21    -1     0     0   501   502  0.000000000E+00  0.000000000E+00  1.432855167E+01  1.432855167E+01  0.000000000E+00  0.00000E+00  9.000E+00
      21    -1     0     0   511   503  0.000000000E+00  0.000000000E+00 -1.377021455E+03  1.377021455E+03  0.000000000E+00  0.00000E+00  9.000E+00
      25     1     1     2     0     0  5.862993947E+01 -1.672160861E+01 -7.017992525E+02  7.154467636E+02  1.249991951E+02  0.00000E+00  9.000E+00
       5     1     1     2   501     0 -2.499737568E+00 -2.044238525E-02  9.257548368E-01  5.446891574E+00  4.750000000E+00  0.00000E+00  9.000E+00
      -5     1     1     2     0   503 -6.813209476E+01  2.364558336E+01 -3.080075243E+02  3.163736612E+02  4.750000000E+00  0.00000E+00  9.000E+00
      21     1     1     2   511   502  1.200189286E+01 -6.903532367E+00 -3.538118817E+02  3.540826907E+02  3.814697266E-06  0.00000E+00  9.000E+00
#rwgt            1           9   1.1512391054886270E-004          12     2852311           0
</event>
<event>
      6   9999  3.45752E-01  4.16130E+02 -1.00000E+00  9.89127E-02
       2    -1     0     0   501     0  0.000000000E+00  0.000000000E+00  7.564203973E+02  7.564203973E+02  0.000000000E+00  0.00000E+00  9.000E+00
      21    -1     0     0   512   502  0.000000000E+00  0.000000000E+00 -1.726797525E+03  1.726797525E+03  0.000000000E+00  0.00000E+00  9.000E+00
      25     1     1     2     0     0 -1.122840354E+02 -2.613538949E+01 -1.159529093E+03  1.171931036E+03  1.249954900E+02  0.00000E+00  9.000E+00
       5     1     1     2   501     0 -5.370285228E+01  1.817663867E+01 -3.541542523E+01  6.701642620E+01  4.750000000E+00  0.00000E+00  9.000E+00
      -5     1     1     2     0   502 -2.245484103E+02  1.516475491E+02 -4.063805106E+02  4.884533239E+02  4.750000000E+00  0.00000E+00  9.000E+00
       2     1     1     2   512     0  3.905352980E+02 -1.436887983E+02  6.309479010E+02  7.558171363E+02  1.078959322E-05  0.00000E+00  9.000E+00
#rwgt            1           4   3.1236298030534551E-007          12     2854334           0
</event>
<event>
      6   9999  3.45752E-01  3.54906E+00 -1.00000E+00  2.59117E-01
      21    -1     0     0   501   511  0.000000000E+00  0.000000000E+00  3.609016025E+02  3.609016025E+02  0.000000000E+00  0.00000E+00  9.000E+00
      21    -1     0     0   502   503  0.000000000E+00  0.000000000E+00 -6.886005003E+02  6.886005003E+02  0.000000000E+00  0.00000E+00  9.000E+00
      25     1     1     2     0     0 -1.868038773E+00  3.932464165E+00 -6.254346003E+02  6.378186967E+02  1.250011870E+02  0.00000E+00  9.000E+00
       5     1     1     2   501     0  1.595880312E+00 -7.870065735E-01 -3.125845429E+01  3.166732824E+01  4.750000000E+00  0.00000E+00  9.000E+00
      -5     1     1     2     0   503 -2.711152001E-01  3.617753574E-01 -2.527888569E+01  2.572525892E+01  4.750000000E+00  0.00000E+00  9.000E+00
      21     1     1     2   502   511  5.432736611E-01 -3.507232949E+00  3.542730425E+02  3.542908190E+02  3.814697266E-06  0.00000E+00  9.000E+00
#rwgt            1           9   9.0677789968135543E-005          12     2854454           0
</event>
<event>
      6   9999  3.45752E-01  7.44322E+00 -1.00000E+00  2.01798E-01
      21    -1     0     0   501   512  0.000000000E+00  0.000000000E+00  4.525126606E+01  4.525126606E+01  0.000000000E+00  0.00000E+00  9.000E+00
      21    -1     0     0   502   503  0.000000000E+00  0.000000000E+00 -1.079069379E+03  1.079069379E+03  0.000000000E+00  0.00000E+00  9.000E+00
      25     1     1     2     0     0 -4.030521394E+01 -1.031106294E+01 -7.263809715E+02  7.382312478E+02  1.250009252E+02  0.00000E+00  9.000E+00
       5     1     1     2   501     0 -5.454993365E-02 -3.236489208E+00  6.499515471E+00  8.676637565E+00  4.750000000E+00  0.00000E+00  9.000E+00
      -5     1     1     2     0   503  3.307592861E+01  1.201547947E+01 -3.443122484E+02  3.461385209E+02  4.750000000E+00  0.00000E+00  9.000E+00
      21     1     1     2   502   512  7.283835260E+00  1.532072678E+00  3.037559102E+01  3.127423912E+01  2.431401974E-06  0.00000E+00  9.000E+00
#rwgt            1           9   2.2327984240151770               12     2858879           0
</event>
<event>
      6   9999  3.45752E-01  1.85827E+01 -1.00000E+00  1.62686E-01
      21    -1     0     0   511   502  0.000000000E+00  0.000000000E+00  1.121427738E+03  1.121427738E+03  0.000000000E+00  0.00000E+00  9.000E+00
      21    -1     0     0   502   503  0.000000000E+00  0.000000000E+00 -1.401409770E+01  1.401409770E+01  0.000000000E+00  0.00000E+00  9.000E+00
      25     1     1     2     0     0  5.830544533E+01  6.413035845E+01  6.176596171E+02  6.361129788E+02  1.249963657E+02  0.00000E+00  9.000E+00
       5     1     1     2   501     0  9.016335212E-01  5.829714367E-01  7.937469411E+01  7.952394208E+01  4.750000000E+00  0.00000E+00  9.000E+00
      -5     1     1     2     0   503 -4.792442086E+01 -4.994782580E+01  3.042656251E+02  3.120763825E+02  4.750000000E+00  0.00000E+00  9.000E+00
      21     1     1     2   511   501 -1.128265799E+01 -1.476550409E+01  1.061137042E+02  1.077285325E+02  0.000000000E+00  0.00000E+00  9.000E+00
#rwgt            1           9   2.6712759981596950E-004          12     2862951           0
</event>
<event>
      6   9999  3.45752E-01  2.70561E+01 -1.00000E+00  1.50799E-01
      21    -1     0     0   501   512  0.000000000E+00  0.000000000E+00  6.228481339E+02  6.228481339E+02  0.000000000E+00  0.00000E+00  9.000E+00
      21    -1     0     0   502   503  0.000000000E+00  0.000000000E+00 -1.375487441E+03  1.375487441E+03  0.000000000E+00  0.00000E+00  9.000E+00
      25     1     1     2     0     0 -5.001512536E+01  2.659095189E+00 -1.042396068E+03  1.051057399E+03  1.249940401E+02  0.00000E+00  9.000E+00
       5     1     1     2   501     0  2.666037518E+01 -2.271758915E+01  3.916670795E+01  5.275848721E+01  4.750000000E+00  0.00000E+00  9.000E+00
      -5     1     1     2     0   503 -3.268153991E+00  1.523608606E+01 -3.214387989E+02  3.218513369E+02  4.750000000E+00  0.00000E+00  9.000E+00
      21     1     1     2   502   512  2.662290417E+01  4.822407903E+00  5.720288514E+02  5.726683521E+02  0.000000000E+00  0.00000E+00  9.000E+00
#rwgt            1           9   2.6102324299548214E-003          12     2864524           0
</event>
<event>
      6   9999  3.45752E-01  1.44900E+01 -1.00000E+00  1.71684E-01
      -1    -1     0     0     0   502  0.000000000E+00  0.000000000E+00  6.415372217E+01  6.415372217E+01  0.000000000E+00  0.00000E+00  9.000E+00
      21    -1     0     0   502   503  0.000000000E+00  0.000000000E+00 -1.290956858E+03  1.290956858E+03  0.000000000E+00  0.00000E+00  9.000E+00
      25     1     1     2     0     0 -5.896141622E+01  6.811208046E+01 -9.414018493E+02  9.539280681E+02  1.250024523E+02  0.00000E+00  9.000E+00
       5     1     1     2   501     0 -2.105250047E+00 -6.562970440E+00  1.000140675E+01  1.304205872E+01  4.750000000E+00  0.00000E+00  9.000E+00
      -5     1     1     2     0   503  4.956391556E+01 -7.036083785E+01 -3.350333862E+02  3.459438706E+02  4.750000000E+00  0.00000E+00  9.000E+00
      -1     1     1     2     0   501  1.150275070E+01  8.811727830E+00  3.963069266E+01  4.219658305E+01  1.261592536E-06  0.00000E+00  9.000E+00
#rwgt            1           9   4.0979169125808946E-003          12     2866571           0
</event>
<event>
      6   9999  3.45752E-01  1.52147E+01 -1.00000E+00  1.69838E-01
      21    -1     0     0   501   502  0.000000000E+00  0.000000000E+00  8.906509870E+02  8.906509870E+02  0.000000000E+00  0.00000E+00  9.000E+00
      21    -1     0     0   511   503  0.000000000E+00  0.000000000E+00 -5.340830449E+01  5.340830449E+01  0.000000000E+00  0.00000E+00  9.000E+00
      25     1     1     2     0     0 -1.177891688E+01 -2.129919808E+01  5.957961400E+02  6.092540373E+02  1.250001714E+02  0.00000E+00  9.000E+00
       5     1     1     2   501     0 -9.341797529E-01  2.577094946E-01  2.185042286E+02  2.185580003E+02  4.750000000E+00  0.00000E+00  9.000E+00
      -5     1     1     2     0   503 -2.382125482E+00  1.913843917E+01  6.687093212E+01  6.975842916E+01  4.750000000E+00  0.00000E+00  9.000E+00
      21     1     1     2   511   502  1.509522212E+01  1.903049408E+00 -4.392861815E+01  4.648882468E+01  9.536743164E-07  0.00000E+00  9.000E+00
#rwgt            1           9  0.10780965130011888               12     2869429           0
</event>
<event>
      6   9999  3.45752E-01  2.41948E+01 -1.00000E+00  1.54145E-01
      21    -1     0     0   501   512  0.000000000E+00  0.000000000E+00  1.934137907E+01  1.934137907E+01  0.000000000E+00  0.00000E+00  9.000E+00
      21    -1     0     0   502   503  0.000000000E+00  0.000000000E+00 -9.773489962E+02  9.773489962E+02  0.000000000E+00  0.00000E+00  9.000E+00
      25     1     1     2     0     0 -1.664258291E+01 -4.041925445E+00 -6.044932676E+02  6.175218675E+02  1.250113334E+02  0.00000E+00  9.000E+00
       5     1     1     2   501     0  6.178866683E+00 -7.732851254E+00  5.872509618E+00  1.245087351E+01  4.750000000E+00  0.00000E+00  9.000E+00
      -5     1     1     2     0   503  2.902906989E+01 -3.740306345E+00 -3.129875076E+02  3.143889616E+02  4.750000000E+00  0.00000E+00  9.000E+00
      21     1     1     2   502   512 -1.856535366E+01  1.551508304E+01 -4.639935155E+01  5.232867266E+01  0.000000000E+00  0.00000E+00  9.000E+00
#rwgt            1           9   4.0950960030869995E-004          12     2871386           0
</event>
<event>
      6   9999  3.45752E-01  5.82295E+00 -1.00000E+00  2.15886E-01
      21    -1     0     0   501   502  0.000000000E+00  0.000000000E+00  1.989581695E+01  1.989581695E+01  0.000000000E+00  0.00000E+00  9.000E+00
      21    -1     0     0   502   511  0.000000000E+00  0.000000000E+00 -2.563805973E+03  2.563805973E+03  0.000000000E+00  0.00000E+00  9.000E+00
      25     1     1     2     0     0  9.950773324E-01  1.265189238E+00 -6.010601044E+02  6.139204128E+02  1.249897330E+02  0.00000E+00  9.000E+00
       5     1     1     2   501     0 -6.875603586E+00  1.678246547E+00  1.209277207E+01  1.479486642E+01  4.750000000E+00  0.00000E+00  9.000E+00
      -5     1     1     2     0   503  6.493144527E-02 -2.650855120E+00 -4.571250628E+02  4.571574310E+02  4.750000000E+00  0.00000E+00  9.000E+00
      21     1     1     2   503   511  5.815594808E+00 -2.925806650E-01 -1.497817761E+03  1.497829080E+03  0.000000000E+00  0.00000E+00  9.000E+00
#rwgt            1           9   351.06901400996622               12     2873411           0
</event>
<event>
      6   9999  3.45752E-01  8.10495E+00 -1.00000E+00  1.97348E-01
      21    -1     0     0   512   502  0.000000000E+00  0.000000000E+00  5.668299057E+01  5.668299057E+01  0.000000000E+00  0.00000E+00  9.000E+00
      21    -1     0     0   502   503  0.000000000E+00  0.000000000E+00 -1.315620984E+03  1.315620984E+03  0.000000000E+00  0.00000E+00  9.000E+00
      25     1     1     2     0     0 -4.437164085E+01 -7.397219547E+01 -3.473386280E+02  3.790914125E+02  1.250017933E+02  0.00000E+00  9.000E+00
       5     1     1     2   501     0 -6.128500237E+00 -2.422885336E+00  3.592768727E+01  3.683463182E+01  4.750000000E+00  0.00000E+00  9.000E+00
      -5     1     1     2     0   503  5.842782328E+01  7.808091867E+01 -9.407777581E+02  9.458307423E+02  4.750000000E+00  0.00000E+00  9.000E+00
      21     1     1     2   512   501 -7.927682190E+00 -1.685837866E+00 -6.749294296E+00  1.054718767E+01  1.884864366E-07  0.00000E+00  9.000E+00
#rwgt            1           9   5.1215267806781293E-003          12     2877767           0
</event>
<event>
      6   9999  3.45752E-01  4.30283E+00 -1.00000E+00  2.41468E-01
      21    -1     0     0   502   511  0.000000000E+00  0.000000000E+00  2.301042972E+01  2.301042972E+01  0.000000000E+00  0.00000E+00  9.000E+00
      21    -1     0     0   501   502  0.000000000E+00  0.000000000E+00 -6.904331464E+02  6.904331464E+02  0.000000000E+00  0.00000E+00  9.000E+00
      25     1     1     2     0     0 -1.604426352E+00 -2.618844610E+00 -6.120472344E+02  6.246891852E+02  1.250013139E+02  0.00000E+00  9.000E+00
       5     1     1     2   501     0 -1.183491852E+00 -2.120356692E+00 -3.550593007E+01  3.590445843E+01  4.750000000E+00  0.00000E+00  9.000E+00
      -5     1     1     2     0   503 -2.576011711E-01  1.699605164E+00 -3.589918111E+01  3.625284431E+01  4.750000000E+00  0.00000E+00  9.000E+00
      21     1     1     2   503   511  3.045519375E+00  3.039596138E+00  1.602962889E+01  1.659708815E+01  9.536743164E-07  0.00000E+00  9.000E+00
#rwgt            1           9   1.6782277442855867E-003          12     2882874           0
</event>
<event>
      6   9999  3.45752E-01  1.08871E+01 -1.00000E+00  1.83387E-01
      21    -1     0     0   512   503  0.000000000E+00  0.000000000E+00  1.827528018E+02  1.827528018E+02  0.000000000E+00  0.00000E+00  9.000E+00
      21    -1     0     0   501   502  0.000000000E+00  0.000000000E+00 -2.546364865E+02  2.546364865E+02  0.000000000E+00  0.00000E+00  9.000E+00
      25     1     1     2     0     0  1.000701357E+01  1.069919258E+02  9.970449766E+01  1.926449413E+02  1.249946961E+02  0.00000E+00  9.000E+00
       5     1     1     2   501     0 -1.564337882E+01 -1.137172720E+02 -1.886586307E+02  2.208867915E+02  4.750000000E+00  0.00000E+00  9.000E+00
      -5     1     1     2     0   503 -9.567138112E-01 -1.938434151E+00  2.844320774E+00  5.943524959E+00  4.750000000E+00  0.00000E+00  9.000E+00
      21     1     1     2   512   502  6.593079058E+00  8.663780285E+00  1.422612757E+01  1.791403042E+01  1.685873940E-07  0.00000E+00  9.000E+00
#rwgt            1           9   1.7930532270220328E-002          12     2887453           0
</event>
<event>
      6   9999  3.45752E-01  5.68631E+00 -1.00000E+00  2.17359E-01
      21    -1     0     0   501   502  0.000000000E+00  0.000000000E+00  9.219715953E+00  9.219715953E+00  0.000000000E+00  0.00000E+00  9.000E+00
       2    -1     0     0   502     0  0.000000000E+00  0.000000000E+00 -2.455833375E+03  2.455833375E+03  0.000000000E+00  0.00000E+00  9.000E+00
      25     1     1     2     0     0  1.335350930E+01 -7.960946533E+00 -5.608895649E+02  5.748599274E+02  1.250005571E+02  0.00000E+00  9.000E+00
       5     1     1     2   501     0  4.666891840E+00  8.317908132E+00 -1.232986005E+01  1.629587138E+01  4.750000000E+00  0.00000E+00  9.000E+00
      -5     1     1     2     0   503 -1.253539866E+01 -1.856583052E+00 -1.853183271E+02  1.858118080E+02  4.750000000E+00  0.00000E+00  9.000E+00
       2     1     1     2   503     0 -5.485002479E+00  1.499621453E+00 -1.688075907E+03  1.688085484E+03  2.157918644E-05  0.00000E+00  9.000E+00
#rwgt            1           9   4.3158957638369862E-002          12     2891128           0
</event>
<event>
      6   9999  3.45752E-01  4.11795E+00 -1.00000E+00  2.45266E-01
      21    -1     0     0   511   502  0.000000000E+00  0.000000000E+00  1.152326280E+02  1.152326280E+02  0.000000000E+00  0.00000E+00  9.000E+00
      21    -1     0     0   502   503  0.000000000E+00  0.000000000E+00 -7.967740248E+02  7.967740248E+02  0.000000000E+00  0.00000E+00  9.000E+00
      25     1     1     2     0     0  4.333720933E-01 -3.425731197E+00 -7.676737069E+02  7.777922497E+02  1.250037603E+02  0.00000E+00  9.000E+00
       5     1     1     2   501     0  8.272201684E-01  5.372357483E-01  3.729678911E+00  6.119307169E+00  4.750000000E+00  0.00000E+00  9.000E+00
      -5     1     1     2     0   503  2.639793545E+00  1.567702578E+00 -2.245515435E+01  2.315648199E+01  4.750000000E+00  0.00000E+00  9.000E+00
      21     1     1     2   511   501 -3.900385807E+00  1.320792870E+00  1.048577855E+02  1.049386138E+02  2.336015456E-06  0.00000E+00  9.000E+00
#rwgt            1           9   1.2381518157497452E-002          12     2895010           0
</event>
<event>
      6   9999  3.45752E-01  6.98457E+01 -1.00000E+00  1.27453E-01
      21    -1     0     0   501   502  0.000000000E+00  0.000000000E+00  2.378378624E+01  2.378378624E+01  0.000000000E+00  0.00000E+00  9.000E+00
      21    -1     0     0   502   512  0.000000000E+00  0.000000000E+00 -1.341339756E+03  1.341339756E+03  0.000000000E+00  0.00000E+00  9.000E+00
      25     1     1     2     0     0  1.974183878E+01 -8.640822730E+01 -7.919854602E+02  8.066732280E+02  1.249984229E+02  0.00000E+00  9.000E+00
       5     1     1     2   501     0  3.762421230E+00  2.103273217E+00  9.094238214E+00  1.112866751E+01  4.750000000E+00  0.00000E+00  9.000E+00
      -5     1     1     2     0   503 -3.640942060E+01  1.566183840E+01 -1.114766123E+02  1.184083472E+02  4.750000000E+00  0.00000E+00  9.000E+00
      21     1     1     2   503   512  1.290516059E+01  6.864311568E+01 -4.231881358E+02  4.289132998E+02  5.394796609E-06  0.00000E+00  9.000E+00
#rwgt            1           9  0.69399795043996237               12     2899841           0
</event>
<event>
      6   9999  3.45752E-01  1.41034E+01 -1.00000E+00  1.72724E-01
      21    -1     0     0   511   502  0.000000000E+00  0.000000000E+00  2.200587441E+01  2.200587441E+01  0.000000000E+00  0.00000E+00  9.000E+00
      21    -1     0     0   502   503  0.000000000E+00  0.000000000E+00 -7.653038947E+02  7.653038947E+02  0.000000000E+00  0.00000E+00  9.000E+00
      25     1     1     2     0     0 -1.617389582E+01  1.269189049E+01 -7.310586461E+02  7.419529359E+02  1.249989446E+02  0.00000E+00  9.000E+00
       5     1     1     2   501     0 -5.212000926E-01  1.384456470E+00 -1.193095980E+01  1.292666511E+01  4.750000000E+00  0.00000E+00  9.000E+00
      -5     1     1     2     0   503  1.132674508E+01 -1.034667175E+00 -9.529288043E+00  1.557997178E+01  4.750000000E+00  0.00000E+00  9.000E+00
      21     1     1     2   511   501  5.368350832E+00 -1.304167979E+01  9.220873672E+00  1.685019625E+01  8.259061849E-07  0.00000E+00  9.000E+00
#rwgt            1           9   1.5769308710769436E-005          12     2900309           0
</event>
<event>
      6   9999  3.45752E-01  8.25081E+00 -1.00000E+00  1.96441E-01
      21    -1     0     0   501   512  0.000000000E+00  0.000000000E+00  1.302642470E+02  1.302642470E+02  0.000000000E+00  0.00000E+00  9.000E+00
      21    -1     0     0   502   503  0.000000000E+00  0.000000000E+00 -1.230785728E+02  1.230785728E+02  0.000000000E+00  0.00000E+00  9.000E+00
      25     1     1     2     0     0  1.378533387E+01 -5.953496531E+00 -8.655194326E+01  1.527802584E+02  1.250003557E+02  0.00000E+00  9.000E+00
       5     1     1     2   501     0  4.027143420E-01  6.409584634E-01  1.975134480E+01  2.032857909E+01  4.750000000E+00  0.00000E+00  9.000E+00
      -5     1     1     2     0   503 -6.772256227E+00  1.695640548E+00  3.297029573E+00  9.064852745E+00  4.750000000E+00  0.00000E+00  9.000E+00
      21     1     1     2   502   512 -7.415791981E+00  3.616897519E+00  7.068924307E+01  7.116912958E+01  1.348699152E-06  0.00000E+00  9.000E+00
#rwgt            1           9   1.2962406155288733E-004          12     2902177           0
</event>
<event>
      6   9999  3.45752E-01  5.16064E+00 -1.00000E+00  2.23600E-01
      21    -1     0     0   511   502  0.000000000E+00  0.000000000E+00  1.761447039E+01  1.761447039E+01  0.000000000E+00  0.00000E+00  9.000E+00
      21    -1     0     0   502   503  0.000000000E+00  0.000000000E+00 -8.708881231E+02  8.708881231E+02  0.000000000E+00  0.00000E+00  9.000E+00
      25     1     1     2     0     0 -3.124889845E+00 -1.001413477E+01 -3.785696654E+02  3.988103638E+02  1.249986675E+02  0.00000E+00  9.000E+00
       5     1     1     2   501     0 -1.227206867E+00 -1.202283469E+00  1.537588354E+00  5.279981078E+00  4.750000000E+00  0.00000E+00  9.000E+00
      -5     1     1     2     0   503  4.058352736E+00  6.064149020E+00 -4.786416311E+02  4.787208139E+02  4.750000000E+00  0.00000E+00  9.000E+00
      21     1     1     2   511   501  2.937439757E-01  5.152269222E+00  2.400055406E+00  5.691434759E+00  4.009492411E-07  0.00000E+00  9.000E+00
#rwgt            1           9   7.7284631410144022E-002          12     2905071           0
</event>
<event>
      6   9999  3.45752E-01  3.41606E+00 -1.00000E+00  2.62946E-01
      21    -1     0     0   512   503  0.000000000E+00  0.000000000E+00  1.269516505E+01  1.269516505E+01  0.000000000E+00  0.00000E+00  9.000E+00
      21    -1     0     0   501   502  0.000000000E+00  0.000000000E+00 -7.697603575E+02  7.697603575E+02  0.000000000E+00  0.00000E+00  9.000E+00
      25     1     1     2     0     0 -1.008147562E+01 -9.319892596E+00 -3.388655443E+02  3.614464122E+02  1.250006210E+02  0.00000E+00  9.000E+00
       5     1     1     2   501     0  1.210748455E+01  8.058806383E+00 -4.012671645E+02  4.015587570E+02  4.750000000E+00  0.00000E+00  9.000E+00
      -5     1     1     2     0   503 -2.318002668E+00 -2.142467807E+00 -1.326143734E+01  1.443577241E+01  4.750000000E+00  0.00000E+00  9.000E+00
      21     1     1     2   512   502  2.919937425E-01  3.403554020E+00 -3.671046353E+00  5.014580904E+00  1.264405455E-07  0.00000E+00  9.000E+00
#rwgt            1           9   3.3902788192669040               12     2909232           0
</event>
<event>
      6   9999  3.45752E-01  2.98317E+01 -1.00000E+00  1.47996E-01
      21    -1     0     0   501   502  0.000000000E+00  0.000000000E+00  1.073105886E+02  1.073105886E+02  0.000000000E+00  0.00000E+00  9.000E+00
      21    -1     0     0   502   511  0.000000000E+00  0.000000000E+00 -8.778296176E+01  8.778296176E+01  0.000000000E+00  0.00000E+00  9.000E+00
      25     1     1     2     0     0 -2.006136752E+01  2.949246153E+00  1.582138735E+01  1.276149042E+02  1.249963638E+02  0.00000E+00  9.000E+00
       5     1     1     2   501     0 -3.914459714E+00 -3.181476833E-01  2.277830838E+01  2.359741607E+01  4.750000000E+00  0.00000E+00  9.000E+00
      -5     1     1     2     0   503 -5.667101487E+00 -5.981810829E+00 -6.434055172E+00  1.148292933E+01  4.750000000E+00  0.00000E+00  9.000E+00
      21     1     1     2   503   511  2.964292872E+01  3.350712359E+00 -1.263801375E+01  3.239830070E+01  5.331201500E-07  0.00000E+00  9.000E+00
#rwgt            1           9   2.5015497620343604E-002          12     2914603           0
</event>
<event>
      6   9999  3.45752E-01  9.63336E+00 -1.00000E+00  1.88919E-01
      21    -1     0     0   512   502  0.000000000E+00  0.000000000E+00  3.426906050E+01  3.426906050E+01  0.000000000E+00  0.00000E+00  9.000E+00
      21    -1     0     0   502   503  0.000000000E+00  0.000000000E+00 -9.589401835E+02  9.589401835E+02  0.000000000E+00  0.00000E+00  9.000E+00
      25     1     1     2     0     0  3.275291590E+01 -1.642917803E+00 -5.907973679E+02  6.047666923E+02  1.250030779E+02  0.00000E+00  9.000E+00
       5     1     1     2   501     0  1.022096878E-01 -1.674507884E-01 -1.073629705E+01  1.174176566E+01  4.750000000E+00  0.00000E+00  9.000E+00
      -5     1     1     2     0   503 -2.802603812E+01 -6.525185251E+00 -3.484234228E+02  3.496419324E+02  4.750000000E+00  0.00000E+00  9.000E+00
      21     1     1     2   512   501 -4.829087464E+00  8.335553843E+00  2.528596477E+01  2.705885360E+01  1.784161275E-06  0.00000E+00  9.000E+00
#rwgt            1           9   4.6770473174555524E-003          12     2915517           0
</event>
<event>
      6   9999  3.45752E-01  1.15643E+01 -1.00000E+00  1.80781E-01
      21    -1     0     0   511   502  0.000000000E+00  0.000000000E+00  7.851104404E+01  7.851104404E+01  0.000000000E+00  0.00000E+00  9.000E+00
      21    -1     0     0   502   503  0.000000000E+00  0.000000000E+00 -7.321424239E+02  7.321424239E+02  0.000000000E+00  0.00000E+00  9.000E+00
      25     1     1     2     0     0  1.440404905E+01  5.419065051E+00 -6.034679129E+02  6.164588110E+02  1.249443912E+02  0.00000E+00  9.000E+00
       5     1     1     2   501     0  9.416427705E-01 -6.103387378E-01 -3.333841274E+00  5.910685419E+00  4.750000000E+00  0.00000E+00  9.000E+00
      -5     1     1     2     0   503 -3.951765053E+00 -6.786260428E+00 -1.169030329E+02  1.172627450E+02  4.750000000E+00  0.00000E+00  9.000E+00
      21     1     1     2   511   501 -1.139392677E+01  1.977534115E+00  7.007340720E+01  7.102122644E+01  2.132480600E-06  0.00000E+00  9.000E+00
#rwgt            1           9   6.2198460634182062E-004          12     2918403           0
</event>
<event>
      6   9999  3.45752E-01  1.70956E+01 -1.00000E+00  1.65592E-01
      21    -1     0     0   501   502  0.000000000E+00  0.000000000E+00  1.115861520E+01  1.115861520E+01  0.000000000E+00  0.00000E+00  9.000E+00
      21    -1     0     0   512   503  0.000000000E+00  0.000000000E+00 -1.199083272E+03  1.199083272E+03  0.000000000E+00  0.00000E+00  9.000E+00
      25     1     1     2     0     0  3.276455600E+00  2.223379404E+01 -6.050225086E+02  6.182093304E+02  1.250018539E+02  0.00000E+00  9.000E+00
       5     1     1     2   501     0 -4.665070035E-01 -7.716747572E-01  2.068734658E-01  4.839256900E+00  4.750000000E+00  0.00000E+00  9.000E+00
      -5     1     1     2     0   503 -9.960039772E+00 -3.699068177E+01 -1.993072493E+02  2.030109728E+02  4.750000000E+00  0.00000E+00  9.000E+00
      21     1     1     2   512   502  7.150091175E+00  1.552856248E+01 -3.838017724E+02  3.841823272E+02  7.629394531E-06  0.00000E+00  9.000E+00
#rwgt            1           9   3.2094647037725477E-005          12     2920559           0
</event>
<event>
      6   9999  3.45752E-01  2.95561E+01 -1.00000E+00  1.48258E-01
      21    -1     0     0   501   502  0.000000000E+00  0.000000000E+00  1.573247926E+03  1.573247926E+03  0.000000000E+00  0.00000E+00  9.000E+00
      21    -1     0     0   511   503  0.000000000E+00  0.000000000E+00 -1.498610202E+02  1.498610202E+02  0.000000000E+00  0.00000E+00  9.000E+00
      25     1     1     2     0     0  1.025548180E+02 -5.000894959E+01  1.851392221E+02  2.508394712E+02  1.250020921E+02  0.00000E+00  9.000E+00
       5     1     1     2   501     0  1.673693048E+00  1.568732101E+01  9.358605762E+02  9.360055950E+02  4.750000000E+00  0.00000E+00  9.000E+00
      -5     1     1     2     0   503 -1.042611165E+02  6.387775968E+01  4.083324607E+02  4.262730458E+02  4.750000000E+00  0.00000E+00  9.000E+00
      21     1     1     2   511   502  3.260542313E-02 -2.955613110E+01 -1.059453528E+02  1.099908347E+02  5.046370146E-06  0.00000E+00  9.000E+00
#rwgt            1           9   8.5404128953325354E-004          12     2922035           0
</event>
<event>
      6   9999 -3.45752E-01  6.40233E+00 -1.00000E+00  2.10206E-01
      21    -1     0     0   501   512  0.000000000E+00  0.000000000E+00  1.212106714E+01  1.212106714E+01  0.000000000E+00  0.00000E+00  9.000E+00
      21    -1     0     0   502   503  0.000000000E+00  0.000000000E+00 -8.027230446E+02  8.027230446E+02  0.000000000E+00  0.00000E+00  9.000E+00
      25     1     1     2     0     0 -1.155819856E+01  5.649383107E+00 -7.162442577E+02  7.271836959E+02  1.249991334E+02  0.00000E+00  9.000E+00
       5     1     1     2   501     0 -2.083526108E+00 -3.106261416E+00  3.889632752E+00  7.188997425E+00  4.750000000E+00  0.00000E+00  9.000E+00
      -5     1     1     2     0   503  8.603934637E+00 -6.494128057E+00 -5.967406661E+01  6.082563700E+01  4.750000000E+00  0.00000E+00  9.000E+00
      21     1     1     2   502   512  5.037790026E+00  3.951006367E+00 -1.857328581E+01  1.964578136E+01  4.129530925E-07  0.00000E+00  9.000E+00
#rwgt            1           9  -3.2298875769460777E-005          12     2924272           0
</event>
<event>
      6   9999  3.45752E-01  1.61014E+02 -1.00000E+00  1.12254E-01
      21    -1     0     0   501   511  0.000000000E+00  0.000000000E+00  1.966338451E+03  1.966338451E+03  0.000000000E+00  0.00000E+00  9.000E+00
      -2    -1     0     0     0   502  0.000000000E+00  0.000000000E+00 -2.295895983E+02  2.295895983E+02  0.000000000E+00  0.00000E+00  9.000E+00
      25     1     1     2     0     0 -1.365723962E+02  1.419047932E+00  1.642760190E+03  1.653160409E+03  1.249970508E+02  0.00000E+00  9.000E+00
       5     1     1     2   501     0 -1.060817114E+01  8.427625971E-02  1.930140261E+02  1.933636914E+02  4.750000000E+00  0.00000E+00  9.000E+00
      -5     1     1     2     0   502 -1.382171591E+01 -3.436527300E+00  9.562084847E+01  9.679234842E+01  4.750000000E+00  0.00000E+00  9.000E+00
      -2     1     1     2     0   511  1.610022832E+02  1.933203108E+00 -1.946462124E+02  2.526116000E+02  5.394796609E-06  0.00000E+00  9.000E+00
#rwgt            1           4   2.5596759115330995E-006          12     2927934           0
</event>
<event>
      6   9999  3.45752E-01  3.39478E+01 -1.00000E+00  1.44447E-01
      21    -1     0     0   501   502  0.000000000E+00  0.000000000E+00  1.774371379E+01  1.774371379E+01  0.000000000E+00  0.00000E+00  9.000E+00
      21    -1     0     0   512   503  0.000000000E+00  0.000000000E+00 -1.750195065E+03  1.750195065E+03  0.000000000E+00  0.00000E+00  9.000E+00
      25     1     1     2     0     0  7.348960482E+01  3.006646946E+01 -4.022424936E+02  4.286292464E+02  1.249771682E+02  0.00000E+00  9.000E+00
       5     1     1     2   501     0  1.725404876E+00  2.233622301E+00 -9.351398291E-01  5.603844847E+00  4.750000000E+00  0.00000E+00  9.000E+00
      -5     1     1     2     0   503 -6.253607402E+01 -8.088982381E-01 -5.278606053E+02  5.315738857E+02  4.750000000E+00  0.00000E+00  9.000E+00
      21     1     1     2   512   502 -1.267893568E+01 -3.149119353E+01 -8.014131123E+02  8.021318016E+02  1.525878906E-05  0.00000E+00  9.000E+00
#rwgt            1           9   4.1834158226845152E-004          12     2928471           0
</event>
<event>
      6   9999  3.45752E-01  4.75795E+00 -1.00000E+00  2.33219E-01
      21    -1     0     0   501   502  0.000000000E+00  0.000000000E+00  2.934840957E+02  2.934840957E+02  0.000000000E+00  0.00000E+00  9.000E+00
      21    -1     0     0   511   503  0.000000000E+00  0.000000000E+00 -7.329275758E+01  7.329275758E+01  0.000000000E+00  0.00000E+00  9.000E+00
      25     1     1     2     0     0  2.603512933E+00  1.097905967E+00  7.255520353E+01  1.445593591E+02  1.250006683E+02  0.00000E+00  9.000E+00
       5     1     1     2   501     0 -3.626722010E-01 -3.076029374E+00  1.806767304E+02  1.807656961E+02  4.750000000E+00  0.00000E+00  9.000E+00
      -5     1     1     2     0   503  1.247071672E+00 -1.258004020E+00  2.459230654E+00  5.634543218E+00  4.750000000E+00  0.00000E+00  9.000E+00
      21     1     1     2   511   502 -3.487912404E+00  3.236127427E+00 -3.549982653E+01  3.581725474E+01  4.768371582E-07  0.00000E+00  9.000E+00
#rwgt            1           9   1.1643295670052695E-003          12     2929463           0
</event>
<event>
      6   9999 -3.45752E-01  4.06482E+01 -1.00000E+00  1.39782E-01
      21    -1     0     0   501   502  0.000000000E+00  0.000000000E+00  7.676849134E+02  7.676849134E+02  0.000000000E+00  0.00000E+00  9.000E+00
      21    -1     0     0   512   503  0.000000000E+00  0.000000000E+00 -3.519408906E+02  3.519408906E+02  0.000000000E+00  0.00000E+00  9.000E+00
      25     1     1     2     0     0 -1.329118963E+02  2.027458508E+02  1.154870201E+02  2.961991073E+02  1.250008286E+02  0.00000E+00  9.000E+00
       5     1     1     2   501     0 -1.040587600E+00  1.083709832E-01  4.538611448E+02  4.538872060E+02  4.750000000E+00  0.00000E+00  9.000E+00
      -5     1     1     2     0   503  1.577764312E+02 -1.699194510E+02 -2.335699582E+01  2.330968336E+02  4.750000000E+00  0.00000E+00  9.000E+00
      21     1     1     2   512   502 -2.382394731E+01 -3.293477078E+01 -1.302471462E+02  1.364426571E+02  0.000000000E+00  0.00000E+00  9.000E+00
#rwgt            1           9  -9.8401450156974284E-004          12     2934189           0
</event>
<event>
      6   9999  3.45752E-01  2.99557E+01 -1.00000E+00  1.47880E-01
      21    -1     0     0   501   511  0.000000000E+00  0.000000000E+00  1.286064852E+02  1.286064852E+02  0.000000000E+00  0.00000E+00  9.000E+00
      21    -1     0     0   502   503  0.000000000E+00  0.000000000E+00 -1.567630798E+03  1.567630798E+03  0.000000000E+00  0.00000E+00  9.000E+00
      25     1     1     2     0     0  1.049484292E+02 -2.548809159E+01 -1.075713222E+03  1.088323568E+03  1.250017516E+02  0.00000E+00  9.000E+00
       5     1     1     2   501     0 -4.773106567E+01  4.837576837E+01  6.509100311E+01  9.422245370E+01  4.750000000E+00  0.00000E+00  9.000E+00
      -5     1     1     2     0   503 -6.102183433E+01 -5.260082891E+01 -4.618165393E+02  4.688150914E+02  4.750000000E+00  0.00000E+00  9.000E+00
      21     1     1     2   502   511  3.804470753E+00  2.971315213E+01  3.341444565E+01  4.487616946E+01  2.023048729E-06  0.00000E+00  9.000E+00
#rwgt            1           9   2.0703123643928899E-003          12     2935932           0
</event>
<event>
      6   9999  3.45752E-01  1.97292E+01 -1.00000E+00  1.60664E-01
      21    -1     0     0   502   512  0.000000000E+00  0.000000000E+00  1.935976621E+01  1.935976621E+01  0.000000000E+00  0.00000E+00  9.000E+00
      21    -1     0     0   501   502  0.000000000E+00  0.000000000E+00 -1.303843885E+03  1.303843885E+03  0.000000000E+00  0.00000E+00  9.000E+00
      25     1     1     2     0     0 -3.645307712E+01 -2.090386466E+01 -3.616073514E+02  3.848941740E+02  1.249713976E+02  0.00000E+00  9.000E+00
       5     1     1     2   501     0  3.132807908E+01 -2.779704799E+01 -7.488377383E+02  7.500230964E+02  4.750000000E+00  0.00000E+00  9.000E+00
      -5     1     1     2     0   503  1.482186260E+01  3.151922190E+01 -1.606307594E+02  1.644322119E+02  4.750000000E+00  0.00000E+00  9.000E+00
      21     1     1     2   503   512 -9.696864564E+00  1.718169075E+01 -1.340827007E+01  2.385416915E+01  8.920806376E-07  0.00000E+00  9.000E+00
#rwgt            1           9   3.3983116251770362E-002          12     2938392           0
</event>
<event>
      6   9999  3.45752E-01  1.13323E+01 -1.00000E+00  1.81648E-01
      21    -1     0     0   501   511  0.000000000E+00  0.000000000E+00  5.800099842E+01  5.800099842E+01  0.000000000E+00  0.00000E+00  9.000E+00
      21    -1     0     0   502   503  0.000000000E+00  0.000000000E+00 -1.113905795E+03  1.113905795E+03  0.000000000E+00  0.00000E+00  9.000E+00
      25     1     1     2     0     0  3.988370898E+01  1.372760288E+02 -4.834194640E+02  5.193799825E+02  1.250030787E+02  0.00000E+00  9.000E+00
       5     1     1     2   501     0 -7.664377324E-01 -3.066997649E-01  4.113825886E+00  6.337787861E+00  4.750000000E+00  0.00000E+00  9.000E+00
      -5     1     1     2     0   503 -3.599791132E+01 -1.260748033E+02 -6.031849747E+02  6.172887346E+02  4.750000000E+00  0.00000E+00  9.000E+00
      21     1     1     2   502   511 -3.119359922E+00 -1.089452572E+01  2.658581583E+01  2.890028893E+01  5.840038640E-07  0.00000E+00  9.000E+00
#rwgt            1           9   3.5661439509543022E-004          12     2940437           0
</event>
<event>
      6   9999  3.45752E-01  4.95182E+00 -1.00000E+00  2.30104E-01
      21    -1     0     0   512   502  0.000000000E+00  0.000000000E+00  4.568664046E+01  4.568664046E+01  0.000000000E+00  0.00000E+00  9.000E+00
      21    -1     0     0   502   503  0.000000000E+00  0.000000000E+00 -1.458699166E+02  1.458699166E+02  0.000000000E+00  0.00000E+00  9.000E+00
      25     1     1     2     0     0  2.025013488E+00 -1.607434974E+00 -1.094613021E+02  1.661712689E+02  1.249977177E+02  0.00000E+00  9.000E+00
       5     1     1     2   501     0  1.560639739E+00  5.801227411E-02  1.364455518E+01  1.453187352E+01  4.750000000E+00  0.00000E+00  9.000E+00
      -5     1     1     2     0   503  3.442313892E-01 -1.463298927E+00 -2.306442941E+00  5.490165575E+00  4.750000000E+00  0.00000E+00  9.000E+00
      21     1     1     2   512   501 -3.929884617E+00  3.012721628E+00 -2.060086214E+00  5.363249007E+00  6.664001875E-08  0.00000E+00  9.000E+00
#rwgt            1           9  0.13839586735056608               12     2944011           0
</event>
<event>
      6   9999  3.45752E-01  1.10096E+01 -1.00000E+00  1.82898E-01
      21    -1     0     0   501   502  0.000000000E+00  0.000000000E+00  3.802862186E+01  3.802862186E+01  0.000000000E+00  0.00000E+00  9.000E+00
      21    -1     0     0   511   503  0.000000000E+00  0.000000000E+00 -1.196918137E+03  1.196918137E+03  0.000000000E+00  0.00000E+00  9.000E+00
      25     1     1     2     0     0  1.411551060E+01  6.870368773E+01 -9.067473015E+02  9.180060368E+02  1.249998814E+02  0.00000E+00  9.000E+00
       5     1     1     2   501     0  3.198541636E+00  7.506174019E+00  2.537376079E+01  2.707329964E+01  4.750000000E+00  0.00000E+00  9.000E+00
      -5     1     1     2     0   503 -8.324306910E+00 -6.985401864E+01 -2.115943397E+02  2.230327445E+02  4.750000000E+00  0.00000E+00  9.000E+00
      21     1     1     2   511   502 -8.989745331E+00 -6.355843107E+00 -6.592163427E+01  6.683467759E+01  1.348699152E-06  0.00000E+00  9.000E+00
#rwgt            1           9   7.7946919922487941E-004          12     2948928           0
</event>
<event>
      6   9999 -3.45752E-01  2.50265E+00 -1.00000E+00  2.99264E-01
      21    -1     0     0   501   502  0.000000000E+00  0.000000000E+00  4.623551691E+00  4.623551691E+00  0.000000000E+00  0.00000E+00  9.000E+00
      21    -1     0     0   512   503  0.000000000E+00  0.000000000E+00 -2.323704080E+03  2.323704080E+03  0.000000000E+00  0.00000E+00  9.000E+00
      25     1     1     2     0     0 -3.979986284E+01  2.585125504E+01 -1.690834907E+03  1.696113245E+03  1.250005575E+02  0.00000E+00  9.000E+00
       5     1     1     2   501     0  1.226120165E-01  7.262975953E-01 -5.853665504E+00  7.574327807E+00  4.750000000E+00  0.00000E+00  9.000E+00
      -5     1     1     2     0   503  3.906590087E+01 -2.900438266E+01 -5.395323522E+02  5.417426699E+02  4.750000000E+00  0.00000E+00  9.000E+00
      21     1     1     2   512   502  6.113499576E-01  2.426830022E+00 -8.285960309E+01  8.289738884E+01  9.536743164E-07  0.00000E+00  9.000E+00
#rwgt            1           9  -7.6564484027867342E-003          12     2952644           0
</event>
<event>
      6   9999 -3.45752E-01  8.25721E+00 -1.00000E+00  1.96402E-01
      21    -1     0     0   501   511  0.000000000E+00  0.000000000E+00  6.016780172E+01  6.016780172E+01  0.000000000E+00  0.00000E+00  9.000E+00
      21    -1     0     0   502   503  0.000000000E+00  0.000000000E+00 -3.153290752E+02  3.153290752E+02  0.000000000E+00  0.00000E+00  9.000E+00
      25     1     1     2     0     0 -3.500949665E+01 -2.297600238E+01 -2.771451508E+02  3.069003709E+02  1.249993659E+02  0.00000E+00  9.000E+00
       5     1     1     2   501     0  7.786302478E-01 -2.344902012E+00  2.495587447E+01  2.552377325E+01  4.750000000E+00  0.00000E+00  9.000E+00
      -5     1     1     2     0   503  2.717411283E+01  2.103327409E+01 -1.845312893E+00  3.473900843E+01  4.750000000E+00  0.00000E+00  9.000E+00
      21     1     1     2   502   511  7.056753570E+00  4.287630303E+00 -1.126684232E+00  8.333724373E+00  1.800514158E-07  0.00000E+00  9.000E+00
#rwgt            1           9  -4.3457694537958716E-004          12     2959429           0
</event>
<event>
      6   9999  3.45752E-01  1.94943E+01 -1.00000E+00  1.61064E-01
      21    -1     0     0   512   502  0.000000000E+00  0.000000000E+00  2.179971620E+02  2.179971620E+02  0.000000000E+00  0.00000E+00  9.000E+00
      21    -1     0     0   502   503  0.000000000E+00  0.000000000E+00 -7.162175457E+02  7.162175457E+02  0.000000000E+00  0.00000E+00  9.000E+00
      25     1     1     2     0     0 -1.859771880E+01  1.639041577E+01 -6.638325235E+02  6.759531671E+02  1.249981755E+02  0.00000E+00  9.000E+00
       5     1     1     2   501     0 -7.699927080E-01  3.368830814E+00  3.884387312E-01  5.886874763E+00  4.750000000E+00  0.00000E+00  9.000E+00
      -5     1     1     2     0   503  7.846219944E+00 -4.033996891E+00 -4.253709352E+01  4.370129430E+01  4.750000000E+00  0.00000E+00  9.000E+00
      21     1     1     2   512   501  1.152149156E+01 -1.572524970E+01  2.077607946E+02  2.086733716E+02  0.000000000E+00  0.00000E+00  9.000E+00
#rwgt            1           9   5.7673301969429300E-003          12     2962892           0
</event>
<event>
      6   9999 -3.45752E-01  1.56488E+01 -1.00000E+00  1.68793E-01
      21    -1     0     0   501   511  0.000000000E+00  0.000000000E+00  3.360948040E+01  3.360948040E+01  0.000000000E+00  0.00000E+00  9.000E+00
      21    -1     0     0   502   503  0.000000000E+00  0.000000000E+00 -1.106497592E+03  1.106497592E+03  0.000000000E+00  0.00000E+00  9.000E+00
      25     1     1     2     0     0 -3.034602144E+01  1.515346932E+01 -1.081678250E+03  1.089404843E+03  1.249982700E+02  0.00000E+00  9.000E+00
       5     1     1     2   501     0 -1.819592764E+00  2.740929103E+00  8.889158168E+00  1.060203957E+01  4.750000000E+00  0.00000E+00  9.000E+00
      -5     1     1     2     0   503  2.252345901E+01 -5.569018254E+00  3.767497695E+00  2.398075706E+01  4.750000000E+00  0.00000E+00  9.000E+00
      21     1     1     2   502   511  9.642155191E+00 -1.232538017E+01 -3.866517817E+00  1.611943278E+01  4.636153336E-07  0.00000E+00  9.000E+00
#rwgt            1           9  -3.2873345001111350E-004          12     2964161           0
</event>
<event>
      6   9999  3.45752E-01  3.08106E+01 -1.00000E+00  1.47093E-01
      21    -1     0     0   501   502  0.000000000E+00  0.000000000E+00  9.394473044E+02  9.394473044E+02  0.000000000E+00  0.00000E+00  9.000E+00
      21    -1     0     0   502   512  0.000000000E+00  0.000000000E+00 -6.714261749E+01  6.714261749E+01  0.000000000E+00  0.00000E+00  9.000E+00
      25     1     1     2     0     0  2.222846434E+01 -8.524216036E+00  3.874254130E+01  1.330107607E+02  1.249964443E+02  0.00000E+00  9.000E+00
       5     1     1     2   501     0  1.081767232E+01  3.689475140E+00  8.354174894E+02  8.355091731E+02  4.750000000E+00  0.00000E+00  9.000E+00
      -5     1     1     2     0   503 -3.001160076E+00 -1.991191929E+00 -4.009695099E+00  7.184146566E+00  4.750000000E+00  0.00000E+00  9.000E+00
      21     1     1     2   503   512 -3.004497658E+01  6.825932824E+00  2.154351354E+00  3.088584152E+01  5.196212463E-07  0.00000E+00  9.000E+00
#rwgt            1           9   5.3974950266769003E-002          12     2966890           0
</event>
<event>
      6   9999  3.45752E-01  1.98601E+01 -1.00000E+00  1.60443E-01
      -4    -1     0     0     0   502  0.000000000E+00  0.000000000E+00  1.065028487E+02  1.065028487E+02  0.000000000E+00  0.00000E+00  9.000E+00
      21    -1     0     0   502   503  0.000000000E+00  0.000000000E+00 -8.067578023E+02  8.067578023E+02  0.000000000E+00  0.00000E+00  9.000E+00
      25     1     1     2     0     0  2.323424610E+01 -5.160597103E+00 -4.546349758E+02  4.721059374E+02  1.249983718E+02  0.00000E+00  9.000E+00
       5     1     1     2   501     0  5.975448333E-01  7.969793622E-01 -2.686473054E+00  5.547240161E+00  4.750000000E+00  0.00000E+00  9.000E+00
      -5     1     1     2     0   503 -1.220916204E+01  2.046763606E+01 -3.378057904E+02  3.386787598E+02  4.750000000E+00  0.00000E+00  9.000E+00
      -4     1     1     2     0   501 -1.162262890E+01 -1.610401832E+01  9.487228581E+01  9.692871362E+01  3.303624740E-06  0.00000E+00  9.000E+00
#rwgt            1           9   4.3373205989913344E-004          12     2968710           0
</event>
<event>
      6   9999  3.45752E-01  3.15814E+01 -1.00000E+00  1.46409E-01
      21    -1     0     0   511   502  0.000000000E+00  0.000000000E+00  3.220668274E+02  3.220668274E+02  0.000000000E+00  0.00000E+00  9.000E+00
      21    -1     0     0   502   503  0.000000000E+00  0.000000000E+00 -1.091192523E+03  1.091192523E+03  0.000000000E+00  0.00000E+00  9.000E+00
      25     1     1     2     0     0  7.788011217E+00 -2.069518104E+01 -1.031105903E+03  1.038889551E+03  1.249926891E+02  0.00000E+00  9.000E+00
       5     1     1     2   501     0 -1.336805700E+00 -1.126922596E+01  2.461036096E+01  2.751390320E+01  4.750000000E+00  0.00000E+00  9.000E+00
      -5     1     1     2     0   503  6.589475670E-01  1.193769885E+00 -5.377580065E+01  5.400239378E+01  4.750000000E+00  0.00000E+00  9.000E+00
      21     1     1     2   511   501 -7.110153084E+00  3.077063711E+01  2.911456468E+02  2.928535027E+02  7.629394531E-06  0.00000E+00  9.000E+00
#rwgt            1           9   5.0411170573849921E-003          12     2971046           0
</event>
<event>
      6   9999  3.45752E-01  1.04369E+01 -1.00000E+00  1.85258E-01
      21    -1     0     0   501   502  0.000000000E+00  0.000000000E+00  9.129152880E+00  9.129152880E+00  0.000000000E+00  0.00000E+00  9.000E+00
      21    -1     0     0   512   503  0.000000000E+00  0.000000000E+00 -8.536435700E+02  8.536435700E+02  0.000000000E+00  0.00000E+00  9.000E+00
      25     1     1     2     0     0 -1.447369446E+01 -2.973848266E+01 -6.041542621E+02  6.178360581E+02  1.250006284E+02  0.00000E+00  9.000E+00
       5     1     1     2   501     0 -2.595286376E-01 -9.528091938E-01 -4.963925663E+00  6.941056005E+00  4.750000000E+00  0.00000E+00  9.000E+00
      -5     1     1     2     0   503  8.965634941E+00  2.199280622E+01 -1.464764865E+02  1.484654496E+02  4.750000000E+00  0.00000E+00  9.000E+00
      21     1     1     2   512   502  5.767588152E+00  8.698485632E+00 -8.891974290E+01  8.953015918E+01  1.348699152E-06  0.00000E+00  9.000E+00
#rwgt            1           9   1.1329813219120815E-003          12     2974104           0
</event>
<event>
      6   9999  3.45752E-01  9.29605E+00 -1.00000E+00  1.90596E-01
      21    -1     0     0   502   503  0.000000000E+00  0.000000000E+00  4.400416821E+03  4.400416821E+03  0.000000000E+00  0.00000E+00  9.000E+00
      21    -1     0     0   501   511  0.000000000E+00  0.000000000E+00 -5.846471430E+00  5.846471430E+00  0.000000000E+00  0.00000E+00  9.000E+00
      25     1     1     2     0     0  2.767675626E+01 -2.319229546E+00  3.024666117E+03  3.027375294E+03  1.249986848E+02  0.00000E+00  9.000E+00
       5     1     1     2   501     0 -1.470258666E-01 -1.487168732E-01  2.731596548E+02  2.732010309E+02  4.750000000E+00  0.00000E+00  9.000E+00
      -5     1     1     2     0   503 -2.957715664E+01 -6.599829448E+00  1.095925723E+03  1.096354924E+03  4.750000000E+00  0.00000E+00  9.000E+00
      21     1     1     2   502   511  2.047426248E+00  9.067775867E+00  8.188546568E-01  9.332043526E+00  1.623029935E-06  0.00000E+00  9.000E+00
#rwgt            1           9   6.0940284194955000E-004          12     2976488           0
</event>
<event>
      6   9999  3.45752E-01  1.03503E+01 -1.00000E+00  1.85632E-01
      21    -1     0     0   501   502  0.000000000E+00  0.000000000E+00  4.836246652E+01  4.836246652E+01  0.000000000E+00  0.00000E+00  9.000E+00
      21    -1     0     0   512   503  0.000000000E+00  0.000000000E+00 -1.656644288E+03  1.656644288E+03  0.000000000E+00  0.00000E+00  9.000E+00
      25     1     1     2     0     0 -6.393153309E+01  2.043445038E+01 -1.374837722E+02  1.975692116E+02  1.250079920E+02  0.00000E+00  9.000E+00
       5     1     1     2   501     0 -1.024181208E+00 -3.276421229E+00  1.645043544E+01  1.746319585E+01  4.750000000E+00  0.00000E+00  9.000E+00
      -5     1     1     2     0   503  7.509963198E+01 -1.510133244E+01 -1.145015107E+03  1.147584490E+03  4.750000000E+00  0.00000E+00  9.000E+00
      21     1     1     2   512   502 -1.014391769E+01 -2.056696718E+00 -3.422333774E+02  3.423898563E+02  3.814697266E-06  0.00000E+00  9.000E+00
#rwgt            1           9   4.8604198602167619E-004          12     2978904           0
</event>
<event>
      6   9999  3.45752E-01  7.21003E+00 -1.00000E+00  2.03516E-01
      21    -1     0     0   502   503  0.000000000E+00  0.000000000E+00  7.303744930E+00  7.303744930E+00  0.000000000E+00  0.00000E+00  9.000E+00
      21    -1     0     0   501   511  0.000000000E+00  0.000000000E+00 -7.410173266E+02  7.410173266E+02  0.000000000E+00  0.00000E+00  9.000E+00
      25     1     1     2     0     0 -9.653361088E-02  9.442820397E+00 -6.550002008E+02  6.668867732E+02  1.249941162E+02  0.00000E+00  9.000E+00
       5     1     1     2   501     0  4.774348246E-04  2.053551222E-01 -8.313650506E+00  9.577131914E+00  4.750000000E+00  0.00000E+00  9.000E+00
      -5     1     1     2     0   503 -8.192868509E-01 -2.496483116E+00 -1.429323285E+01  1.528929901E+01  4.750000000E+00  0.00000E+00  9.000E+00
      21     1     1     2   502   511  9.153430270E-01 -7.151692404E+00 -5.610649753E+01  5.656786740E+01  6.743495762E-07  0.00000E+00  9.000E+00
#rwgt            1           9   1.0865992630148564E-005          12     2983039           0
</event>
<event>
      6   9999  3.45752E-01  2.47152E+01 -1.00000E+00  1.53496E-01
      21    -1     0     0   501   502  0.000000000E+00  0.000000000E+00  3.346002021E+02  3.346002021E+02  0.000000000E+00  0.00000E+00  9.000E+00
      21    -1     0     0   512   503  0.000000000E+00  0.000000000E+00 -2.291647491E+02  2.291647491E+02  0.000000000E+00  0.00000E+00  9.000E+00
      25     1     1     2     0     0 -3.074285562E+01 -4.417317521E+01 -1.552601638E+01  1.369767049E+02  1.250006717E+02  0.00000E+00  9.000E+00
       5     1     1     2   501     0 -6.850998578E-01  3.897255960E+00  1.562929660E+02  1.564151901E+02  4.750000000E+00  0.00000E+00  9.000E+00
      -5     1     1     2     0   503  1.342308854E+01  5.720710981E+01  1.090106276E+02  1.239302713E+02  4.750000000E+00  0.00000E+00  9.000E+00
      21     1     1     2   512   502  1.800486694E+01 -1.693119056E+01 -1.443421242E+02  1.464427849E+02  3.303624740E-06  0.00000E+00  9.000E+00
#rwgt            1           9   7.9627602160489455E-005          12     2985805           0
</event>
<event>
      6   9999  3.45752E-01  5.88137E+00 -1.00000E+00  2.15273E-01
      21    -1     0     0   501   511  0.000000000E+00  0.000000000E+00  2.648807122E+02  2.648807122E+02  0.000000000E+00  0.00000E+00  9.000E+00
      21    -1     0     0   502   503  0.000000000E+00  0.000000000E+00 -9.219214625E+01  9.219214625E+01  0.000000000E+00  0.00000E+00  9.000E+00
      25     1     1     2     0     0 -1.777722811E+00 -5.853232637E+00 -3.553837562E+01  1.300950747E+02  1.249973267E+02  0.00000E+00  9.000E+00
       5     1     1     2   501     0  1.119391447E-01  7.137097138E-01 -1.833417528E+00  5.142551095E+00  4.750000000E+00  0.00000E+00  9.000E+00
      -5     1     1     2     0   503 -3.707884190E+00  2.749074412E+00 -3.971377761E+00  7.722703970E+00  4.750000000E+00  0.00000E+00  9.000E+00
      21     1     1     2   502   511  5.373667856E+00  2.390448511E+00  2.140317368E+02  2.141125286E+02  2.697398305E-06  0.00000E+00  9.000E+00
#rwgt            1           9   8.4265330412559170E-003          12     2988589           0
</event>
<event>
      6   9999  3.45752E-01  8.40471E+00 -1.00000E+00  1.95511E-01
      21    -1     0     0   501   512  0.000000000E+00  0.000000000E+00  1.000760476E+03  1.000760476E+03  0.000000000E+00  0.00000E+00  9.000E+00
      21    -1     0     0   502   503  0.000000000E+00  0.000000000E+00 -1.161418722E+02  1.161418722E+02  0.000000000E+00  0.00000E+00  9.000E+00
      25     1     1     2     0     0  3.388282344E+00  3.938841114E+00 -8.053994146E+01  1.487868740E+02  1.249954271E+02  0.00000E+00  9.000E+00
       5     1     1     2   501     0 -3.316994450E+00  5.670171798E+00  5.549178402E+02  5.549770492E+02  4.750000000E+00  0.00000E+00  9.000E+00
      -5     1     1     2     0   503 -2.687018472E+00 -1.621701304E+00  4.360535090E+00  7.171244638E+00  4.750000000E+00  0.00000E+00  9.000E+00
      21     1     1     2   502   512  2.615730578E+00 -7.987311608E+00  4.058801696E+02  4.059671800E+02  0.000000000E+00  0.00000E+00  9.000E+00
#rwgt            1           9   5.1875445617385570E-004          12     2991540           0
</event>
<event>
      6   9999  3.45752E-01  5.37236E+01 -1.00000E+00  1.33139E-01
      21    -1     0     0   511   502  0.000000000E+00  0.000000000E+00  1.911860453E+02  1.911860453E+02  0.000000000E+00  0.00000E+00  9.000E+00
      21    -1     0     0   502   503  0.000000000E+00  0.000000000E+00 -1.723387251E+02  1.723387251E+02  0.000000000E+00  0.00000E+00  9.000E+00
      25     1     1     2     0     0 -8.762466168E+01  5.194443926E+01  7.672775753E+01  1.785753221E+02  1.250027631E+02  0.00000E+00  9.000E+00
       5     1     1     2   501     0  2.955843566E+01 -8.200786548E+01 -7.181459819E+01  1.130437532E+02  4.750000000E+00  0.00000E+00  9.000E+00
      -5     1     1     2     0   503  1.076516571E+01  4.591152502E+00 -6.770158703E+00  1.433056255E+01  4.750000000E+00  0.00000E+00  9.000E+00
      21     1     1     2   511   501  4.730106031E+01  2.547227371E+01  2.070431957E+01  5.757513251E+01  8.259061849E-07  0.00000E+00  9.000E+00
#rwgt            1           9   1.3627600620627915E-004          12     2996524           0
</event>
<event>
      6   9999 -3.45752E-01  1.21254E+01 -1.00000E+00  1.78788E-01
      21    -1     0     0   501   512  0.000000000E+00  0.000000000E+00  1.885775645E+01  1.885775645E+01  0.000000000E+00  0.00000E+00  9.000E+00
      21    -1     0     0   502   503  0.000000000E+00  0.000000000E+00 -2.267954593E+03  2.267954593E+03  0.000000000E+00  0.00000E+00  9.000E+00
      25     1     1     2     0     0  9.073860521E+00 -4.559060966E+00 -2.204201854E+03  2.207766917E+03  1.250033121E+02  0.00000E+00  9.000E+00
       5     1     1     2   501     0 -9.951980790E-01 -2.335122692E+00  1.853864705E+00  5.695834579E+00  4.750000000E+00  0.00000E+00  9.000E+00
      -5     1     1     2     0   503  4.156575126E-01 -1.758641554E+00 -5.714928287E+01  5.737480827E+01  4.750000000E+00  0.00000E+00  9.000E+00
      21     1     1     2   502   512 -8.494319954E+00  8.652825213E+00  1.040043516E+01  1.597478974E+01  2.158972058E-06  0.00000E+00  9.000E+00
#rwgt            1           9  -2.8737818395874258E-004          12     2997793           0
</event>
<event>
      6   9999  3.45752E-01  8.83864E+00 -1.00000E+00  1.93024E-01
      21    -1     0     0   502   503  0.000000000E+00  0.000000000E+00  9.506176545E+00  9.506176545E+00  0.000000000E+00  0.00000E+00  9.000E+00
      21    -1     0     0   511   502  0.000000000E+00  0.000000000E+00 -4.189029508E+03  4.189029508E+03  0.000000000E+00  0.00000E+00  9.000E+00
      25     1     1     2     0     0  1.864589585E+01 -2.433184493E+01 -4.561522508E+02  4.739594899E+02  1.249920558E+02  0.00000E+00  9.000E+00
       5     1     1     2   501     0 -1.156388582E+01  2.176567032E+01 -2.563498760E+03  2.563621642E+03  4.750000000E+00  0.00000E+00  9.000E+00
      -5     1     1     2     0   503 -3.281756628E+00 -5.413772453E+00 -2.937140552E+01  3.041908645E+01  4.750000000E+00  0.00000E+00  9.000E+00
      21     1     1     2   511   501 -3.800253405E+00  7.979947064E+00 -1.130500915E+03  1.130535466E+03  1.525878906E-05  0.00000E+00  9.000E+00
#rwgt            1           9   1.6715806385414983E-003          12     3000085           0
</event>
<event>
      6   9999 -3.45752E-01  2.03056E+01 -1.00000E+00  1.59709E-01
      21    -1     0     0   512   502  0.000000000E+00  0.000000000E+00  8.988604813E+00  8.988604813E+00  0.000000000E+00  0.00000E+00  9.000E+00
      21    -1     0     0   502   503  0.000000000E+00  0.000000000E+00 -1.839792240E+03  1.839792240E+03  0.000000000E+00  0.00000E+00  9.000E+00
      25     1     1     2     0     0  1.800926574E+01  3.144613228E+01 -1.582786546E+03  1.588128738E+03  1.250057741E+02  0.00000E+00  9.000E+00
       5     1     1     2   501     0 -8.818089970E-01  7.695484781E+00 -3.120307327E-01  9.091641012E+00  4.750000000E+00  0.00000E+00  9.000E+00
      -5     1     1     2     0   503 -1.220450957E+01 -1.944186788E+01 -1.231620720E+02  1.253730224E+02  4.750000000E+00  0.00000E+00  9.000E+00
      21     1     1     2   512   501 -4.922947179E+00 -1.969974918E+01 -1.245429860E+02  1.261874434E+02  0.000000000E+00  0.00000E+00  9.000E+00
#rwgt            1           9  -1.2615985353327219               12     3003219           0
</event>
<event>
      6   9999 -3.45752E-01  9.25557E+00 -1.00000E+00  1.90803E-01
      21    -1     0     0   501   502  0.000000000E+00  0.000000000E+00  8.503624028E+00  8.503624028E+00  0.000000000E+00  0.00000E+00  9.000E+00
      21    -1     0     0   511   503  0.000000000E+00  0.000000000E+00 -9.334683620E+02  9.334683620E+02  0.000000000E+00  0.00000E+00  9.000E+00
      25     1     1     2     0     0  1.893183211E+01 -3.555123428E+00 -5.501811207E+02  5.645318810E+02  1.250037037E+02  0.00000E+00  9.000E+00
       5     1     1     2   501     0  7.176060293E-01  2.146255727E-01 -5.187602509E+00  7.073524040E+00  4.750000000E+00  0.00000E+00  9.000E+00
      -5     1     1     2     0   503 -1.086581361E+01  4.227096875E-01 -1.168080518E+02  1.174092332E+02  4.750000000E+00  0.00000E+00  9.000E+00
      21     1     1     2   511   502 -8.783624531E+00  2.917788168E+00 -2.527879630E+02  2.529573478E+02  0.000000000E+00  0.00000E+00  9.000E+00
#rwgt            1           9  -1.8734254251411883E-002          12     3004866           0
</event>
<event>
      6   9999  3.45752E-01  2.25367E+01 -1.00000E+00  1.56350E-01
      21    -1     0     0   501   502  0.000000000E+00  0.000000000E+00  3.020773893E+01  3.020773893E+01  0.000000000E+00  0.00000E+00  9.000E+00
      -1    -1     0     0     0   503  0.000000000E+00  0.000000000E+00 -6.442483989E+02  6.442483989E+02  0.000000000E+00  0.00000E+00  9.000E+00
      25     1     1     2     0     0  1.496425840E+01 -1.234771683E+01 -1.700919286E+02  2.119718809E+02  1.249976759E+02  0.00000E+00  9.000E+00
       5     1     1     2   501     0  2.500505164E+00 -1.827499973E+00  7.159338815E+00  9.132957598E+00  4.750000000E+00  0.00000E+00  9.000E+00
      -5     1     1     2     0   503  5.650186003E-01  6.537711747E-01 -6.130293859E+00  7.803183040E+00  4.750000000E+00  0.00000E+00  9.000E+00
      -1     1     1     2     0   502 -1.802978217E+01  1.352144563E+01 -4.449777763E+02  4.455481163E+02  0.000000000E+00  0.00000E+00  9.000E+00
#rwgt            1           9   1.0824052784476516E-002          12     3007180           0
</event>
</LesHouchesEvents>
 #Random number generator exit values:           12       3008172             0
