<LesHouchesEvents version="3.0">
<!--
file generated with POWHEG-BOX-V2
Input file powheg.input contained:
numevts 1000    ! number of events to be generated

! Production parameters for ttH production
hmass 125.d0      ! mass of the HIggs boson [GeV]
hwidth 0.00498d0  ! width of the Higgs boson [GeV]

hdecaymode -1    ! -1 no decay
                ! 0 all decay channels open
                ! 1-6 d dbar, u ubar,..., t tbar
                ! 7-9 e+ e-, mu+ mu-, tau+ tau-
                ! 10  W+W-
                ! 11  ZZ
                ! 12  gamma gamma

#pythiatune 320	! PYTHIA tune


ih1   1           ! hadron 1 (1 for protons, -1 for antiprotons)
ih2   1           ! hadron 2 (1 for protons, -1 for antiprotons)
ebeam1 6500d0     ! energy of beam 1
ebeam2 6500d0     ! energy of beam 2

! To be set only if using 'native' pdfs
!ndns1 131         ! pdf set for hadron 1 (mlm numbering)
!ndns2 131         ! pdf set for hadron 2 (mlm numbering)
! To be set only if using LHA pdfs
! 10050 cteq6m
! 10042 cteq6l with LO alphas (corr. to vbfnlo LO set)
! 10041 cteq6l with NLO alphas
! 21000 MSTW2008 LO
! 21100 MSTW2008 NLO
! 23300 MSTW2008 NLO, NF=4
! 11082 CT10 Nf4

lhans1  23300      ! pdf set for hadron 1 (LHA numbering)
lhans2  23300      ! pdf set for hadron 2 (LHA numbering)

#bornktmin 1d0    ! Generation cut; minimum kt in underlying born
#bornsuppfact 1d0 ! (default 0d0) switch for Born suppression factor. If < 0 suppfact = 1
delta_mbbmin 0d0 ! generation cut on mbb (no gencut used, if set to 0)

use-old-grid    1 ! if 1 use old grid if file pwggrids.dat is present (<> 1 regenerate)
use-old-ubound  1 ! if 1 use norm of upper bounding function stored in pwgubound.dat, if present; <>

ncall1  500000  ! number of calls for initializing the integration grid
itmx1    2     ! number of iterations for initializing the integration grid
ncall2  50000  ! number of calls for computing the integral and finding upper bound
itmx2     1     ! number of iterations for computing the integral and finding upper bound
foldcsi   1    ! number of folds on csi integration
foldy     1    ! number of folds on  y  integration
foldphi   1    ! number of folds on phi integration
nubound 10000  ! number of bbarra calls to setup norm of upper bounding function
icsimax  1     ! <= 100, number of csi subdivision when computing the upper bounds
iymax    1     ! <= 100, number of y subdivision when computing the upper bounds
xupbound 2d0   ! increase upper bound for radiation generation

#runningscales 2	   ! default 0 (no running scales); 1,2: use running scales
renscfact 1d0   ! (default 1d0) ren scale factor: muren  = muref * renscfact
facscfact 1d0   ! (default 1d0) fac scale factor: mufact = muref * facscfact
testplots  1       ! (default 0, do not) do NLO and PWHG distributions

#bornonly   1      ! (default 0) if 1 do Born only
#fakevirt   1      ! (default 0) if 1 use Born for virtuals

iseed    2

manyseeds  1       ! Used to perform multiple runs with different random
                   ! seeds in the same directory.
                   ! If set to 1, the program asks for an integer j;
                   ! The file pwgseeds.dat at line j is read, and the
                   ! integer at line j is used to initialize the random
                   ! sequence for the generation of the event.
                   ! The event file is called pwgevents-'j'.lhe

#storeinfo_rwgt 1   ! store info for reweighting events
#compute_rwgt 1   ! store info for reweighting events
#xgriditeration 1   ! identifier for grid generation
#parallelstage  4   ! identifier for parallel running stages


toploop 1	! 1 include top loop effects; 0 disregard top loop effects
msbar  1	! 1 MSbar renormalization; 0 On-Shell renormalization
parallelstage 4
End of powheg.input content
PDF package: lha
 Random number generator initialized with:            4             0             0
-->
<init>
     2212     2212  6.50000E+03  6.50000E+03     -1     -1     -1     -1     -4      1
  3.37328E-01  1.60874E-01  1.00000E+00   9999
</init>
<event>
      6   9999  3.45752E-01  1.16905E+01 -1.00000E+00  1.80321E-01
      21    -1     0     0   502   511  0.000000000E+00  0.000000000E+00  5.370689873E+01  5.370689873E+01  0.000000000E+00  0.00000E+00  9.000E+00
      21    -1     0     0   501   502  0.000000000E+00  0.000000000E+00 -8.418123608E+02  8.418123608E+02  0.000000000E+00  0.00000E+00  9.000E+00
      25     1     1     2     0     0 -1.258277811E+01  4.035620570E+00 -3.386256561E+02  3.612008656E+02  1.249964713E+02  0.00000E+00  9.000E+00
       5     1     1     2   501     0  1.328712839E+01 -7.438319712E+00 -4.574134702E+02  4.576915136E+02  4.750000000E+00  0.00000E+00  9.000E+00
      -5     1     1     2     0   503 -4.207476438E+00 -7.750631136E+00 -3.277568374E+01  3.427219114E+01  4.750000000E+00  0.00000E+00  9.000E+00
      21     1     1     2   503   511  3.503126155E+00  1.115333028E+01  4.070934805E+01  4.235468909E+01  1.261592536E-06  0.00000E+00  9.000E+00
#rwgt            1           9  0.48385794788762421                4           1           0
</event>
<event>
      6   9999  3.45752E-01  1.05176E+01 -1.00000E+00  1.84914E-01
      21    -1     0     0   501   502  0.000000000E+00  0.000000000E+00  1.811716870E+01  1.811716870E+01  0.000000000E+00  0.00000E+00  9.000E+00
      -2    -1     0     0     0   503  0.000000000E+00  0.000000000E+00 -1.068240035E+03  1.068240035E+03  0.000000000E+00  0.00000E+00  9.000E+00
      25     1     1     2     0     0 -2.407696796E+01  4.310636167E+01 -7.615460062E+02  7.733131393E+02  1.249921325E+02  0.00000E+00  9.000E+00
       5     1     1     2   501     0 -9.557453781E-01  7.263700254E-01  8.662143478E+00  9.951697960E+00  4.750000000E+00  0.00000E+00  9.000E+00
      -5     1     1     2     0   503  2.727480926E+01 -3.355689343E+01 -1.721405647E+02  1.775525749E+02  4.750000000E+00  0.00000E+00  9.000E+00
      -2     1     1     2     0   502 -2.242095923E+00 -1.027583826E+01 -1.250984391E+02  1.255397918E+02  1.348699152E-06  0.00000E+00  9.000E+00
#rwgt            1           9   9.6613326878747965E-005           4        2512           0
</event>
<event>
      6   9999 -3.45752E-01  1.08806E+01 -1.00000E+00  1.83414E-01
      21    -1     0     0   501   502  0.000000000E+00  0.000000000E+00  3.126480578E+01  3.126480578E+01  0.000000000E+00  0.00000E+00  9.000E+00
       2    -1     0     0   502     0  0.000000000E+00  0.000000000E+00 -2.131487807E+03  2.131487807E+03  0.000000000E+00  0.00000E+00  9.000E+00
      25     1     1     2     0     0  2.523825069E+01 -5.671809082E+01 -1.086023674E+03  1.094955026E+03  1.250007089E+02  0.00000E+00  9.000E+00
       5     1     1     2   501     0 -2.019351050E+00  5.554431931E-01  1.171574130E+01  1.281434313E+01  4.750000000E+00  0.00000E+00  9.000E+00
      -5     1     1     2     0   503 -2.746641934E+01  4.614530842E+01 -3.559086925E+01  6.459927364E+01  4.750000000E+00  0.00000E+00  9.000E+00
       2     1     1     2   503     0  4.247519703E+00  1.001733921E+01 -9.903241993E+02  9.903839701E+02  1.078959322E-05  0.00000E+00  9.000E+00
#rwgt            1           9  -4.8955140447459945E-005           4        5602           0
</event>
<event>
      6   9999  3.45752E-01  7.98204E+00 -1.00000E+00  1.98131E-01
      21    -1     0     0   501   511  0.000000000E+00  0.000000000E+00  1.962242487E+01  1.962242487E+01  0.000000000E+00  0.00000E+00  9.000E+00
      21    -1     0     0   502   503  0.000000000E+00  0.000000000E+00 -1.018031828E+03  1.018031828E+03  0.000000000E+00  0.00000E+00  9.000E+00
      25     1     1     2     0     0 -3.221307880E+01 -3.675736593E-01 -4.616545748E+02  4.793622660E+02  1.250016721E+02  0.00000E+00  9.000E+00
       5     1     1     2   501     0  1.754201096E+00 -1.559550853E+00  8.684953928E+00  1.017351193E+01  4.750000000E+00  0.00000E+00  9.000E+00
      -5     1     1     2     0   503  3.751765278E+01 -1.799350274E+00 -5.217154118E+02  5.230873210E+02  4.750000000E+00  0.00000E+00  9.000E+00
      21     1     1     2   502   511 -7.058775072E+00  3.726474787E+00 -2.372437078E+01  2.503115436E+01  4.768371582E-07  0.00000E+00  9.000E+00
#rwgt            1           9   1.3812032967619656                4        8942           0
</event>
<event>
      6   9999  3.45752E-01  5.43993E+01 -1.00000E+00  1.32857E-01
      21    -1     0     0   512   503  0.000000000E+00  0.000000000E+00  5.915062244E+01  5.915062244E+01  0.000000000E+00  0.00000E+00  9.000E+00
      21    -1     0     0   501   502  0.000000000E+00  0.000000000E+00 -1.704608809E+03  1.704608809E+03  0.000000000E+00  0.00000E+00  9.000E+00
      25     1     1     2     0     0 -9.552253327E+01 -5.850289610E+01 -1.663765465E+02  2.363358746E+02  1.250053886E+02  0.00000E+00  9.000E+00
       5     1     1     2   501     0  8.101691061E+01  5.417877558E+01 -1.169668170E+03  1.173731345E+03  4.750000000E+00  0.00000E+00  9.000E+00
      -5     1     1     2     0   503 -3.937476062E+01  1.182007048E+01 -2.943512038E+02  2.972461598E+02  4.750000000E+00  0.00000E+00  9.000E+00
      21     1     1     2   512   502  5.388038328E+01 -7.495949969E+00 -1.506226661E+01  5.644605251E+01  9.386548846E-07  0.00000E+00  9.000E+00
#rwgt            1           9   1.8646033142828635E-003           4       12685           0
</event>
<event>
      6   9999  3.45752E-01  1.58644E+01 -1.00000E+00  1.68289E-01
      21    -1     0     0   501   502  0.000000000E+00  0.000000000E+00  7.749264874E+01  7.749264874E+01  0.000000000E+00  0.00000E+00  9.000E+00
       2    -1     0     0   502     0  0.000000000E+00  0.000000000E+00 -7.734094890E+02  7.734094890E+02  0.000000000E+00  0.00000E+00  9.000E+00
      25     1     1     2     0     0 -7.091962324E+00 -2.303868630E+01 -4.170625945E+02  4.360580095E+02  1.249972116E+02  0.00000E+00  9.000E+00
       5     1     1     2   501     0  5.741638120E-01 -4.855605224E+00  5.918277253E+01  5.957406844E+01  4.750000000E+00  0.00000E+00  9.000E+00
      -5     1     1     2     0   503 -9.165953822E+00  2.550729143E+01 -1.405323754E+01  3.089810044E+01  4.750000000E+00  0.00000E+00  9.000E+00
       2     1     1     2   503     0  1.568375233E+01  2.387000093E+00 -3.239837808E+02  3.243719594E+02  6.607249480E-06  0.00000E+00  9.000E+00
#rwgt            1           9  0.10336020578146099                4       13941           0
</event>
<event>
      6   9999 -3.45752E-01  2.17721E+01 -1.00000E+00  1.57446E-01
      21    -1     0     0   511   502  0.000000000E+00  0.000000000E+00  2.921260136E+00  2.921260136E+00  0.000000000E+00  0.00000E+00  9.000E+00
      21    -1     0     0   502   503  0.000000000E+00  0.000000000E+00 -2.255504218E+03  2.255504218E+03  0.000000000E+00  0.00000E+00  9.000E+00
      25     1     1     2     0     0  5.751728048E+00  1.519566351E+01 -1.895381876E+03  1.899568996E+03  1.250036991E+02  0.00000E+00  9.000E+00
       5     1     1     2   501     0  4.366577904E-01  9.893662838E-01 -3.994186701E+01  4.023785228E+01  4.750000000E+00  0.00000E+00  9.000E+00
      -5     1     1     2     0   503  2.874409109E+00  3.611131512E+00 -1.151005605E+02  1.152909538E+02  4.750000000E+00  0.00000E+00  9.000E+00
      21     1     1     2   511   501 -9.062794947E+00 -1.979616131E+01 -2.021586548E+02  2.033276763E+02  0.000000000E+00  0.00000E+00  9.000E+00
#rwgt            1           9  -1.0156892158176031E-003           4       16417           0
</event>
<event>
      6   9999 -3.45752E-01  5.25009E+00 -1.00000E+00  2.22467E-01
      21    -1     0     0   512   503  0.000000000E+00  0.000000000E+00  3.761927517E+01  3.761927517E+01  0.000000000E+00  0.00000E+00  9.000E+00
      21    -1     0     0   501   502  0.000000000E+00  0.000000000E+00 -5.717551335E+02  5.717551335E+02  0.000000000E+00  0.00000E+00  9.000E+00
      25     1     1     2     0     0 -2.725388488E+01  1.719599359E+01 -1.392134278E+02  1.898528533E+02  1.250010038E+02  0.00000E+00  9.000E+00
       5     1     1     2   501     0 -4.776068670E+00 -3.116436544E+00 -3.796796161E+02  3.797521512E+02  4.750000000E+00  0.00000E+00  9.000E+00
      -5     1     1     2     0   503  2.681177731E+01 -1.350154156E+01 -1.618768757E+01  3.443496415E+01  4.750000000E+00  0.00000E+00  9.000E+00
      21     1     1     2   512   502  5.218176239E+00 -5.780154815E-01  9.448731462E-01  5.334440029E+00  1.336958889E-07  0.00000E+00  9.000E+00
#rwgt            1           9  -157.21195910104709                4       17326           0
</event>
<event>
      6   9999 -3.45752E-01  1.95324E+01 -1.00000E+00  1.60999E-01
      21    -1     0     0   501   502  0.000000000E+00  0.000000000E+00  7.897753871E+00  7.897753871E+00  0.000000000E+00  0.00000E+00  9.000E+00
       1    -1     0     0   502     0  0.000000000E+00  0.000000000E+00 -1.542661424E+03  1.542661424E+03  0.000000000E+00  0.00000E+00  9.000E+00
      25     1     1     2     0     0  1.105719977E+01 -4.461235103E+00 -6.207725536E+02  6.333460346E+02  1.250058876E+02  0.00000E+00  9.000E+00
       5     1     1     2   501     0  1.026490744E+00  4.739582286E-01 -6.388620571E+00  8.040851475E+00  4.750000000E+00  0.00000E+00  9.000E+00
      -5     1     1     2     0   503  4.270985749E+00  1.466615070E+01 -9.517282597E+01  9.650785770E+01  4.750000000E+00  0.00000E+00  9.000E+00
       1     1     1     2   503     0 -1.635467626E+01 -1.067887382E+01 -8.124296697E+02  8.126644338E+02  1.078959322E-05  0.00000E+00  9.000E+00
#rwgt            1           9  -1.3879798678692516E-003           4       22120           0
</event>
<event>
      6   9999  3.45752E-01  1.89180E+01 -1.00000E+00  1.62076E-01
      21    -1     0     0   511   502  0.000000000E+00  0.000000000E+00  1.118727673E+02  1.118727673E+02  0.000000000E+00  0.00000E+00  9.000E+00
      21    -1     0     0   502   503  0.000000000E+00  0.000000000E+00 -1.550577912E+03  1.550577912E+03  0.000000000E+00  0.00000E+00  9.000E+00
      25     1     1     2     0     0 -1.510485741E+02 -2.416111242E+01 -1.281799325E+02  2.354877215E+02  1.249997630E+02  0.00000E+00  9.000E+00
       5     1     1     2   501     0  8.853095383E-02  1.226578020E-01 -9.515156431E-01  4.846727214E+00  4.750000000E+00  0.00000E+00  9.000E+00
      -5     1     1     2     0   503  1.344865627E+02  3.333986674E+01 -1.360626275E+03  1.367671234E+03  4.750000000E+00  0.00000E+00  9.000E+00
      21     1     1     2   511   501  1.647348045E+01 -9.301412116E+00  5.105257866E+01  5.444499622E+01  2.132480600E-06  0.00000E+00  9.000E+00
#rwgt            1           9   6.0097796770804097E-005           4       23375           0
</event>
<event>
      6   9999  3.45752E-01  2.21857E+01 -1.00000E+00  1.56847E-01
      21    -1     0     0   501   512  0.000000000E+00  0.000000000E+00  4.039315250E+01  4.039315250E+01  0.000000000E+00  0.00000E+00  9.000E+00
      21    -1     0     0   502   503  0.000000000E+00  0.000000000E+00 -1.243343815E+03  1.243343815E+03  0.000000000E+00  0.00000E+00  9.000E+00
      25     1     1     2     0     0  1.493038201E+02  1.541155481E+01 -4.356349341E+02  4.774223664E+02  1.250006938E+02  0.00000E+00  9.000E+00
       5     1     1     2   501     0 -2.336744002E+00 -1.242105823E+00  5.463031678E+00  7.707815159E+00  4.750000000E+00  0.00000E+00  9.000E+00
      -5     1     1     2     0   503 -1.680457365E+02 -2.109017246E+01 -7.391423024E+02  7.583126471E+02  4.750000000E+00  0.00000E+00  9.000E+00
      21     1     1     2   502   512  2.107866045E+01  6.920723469E+00 -3.363645742E+01  4.029413862E+01  4.768371582E-07  0.00000E+00  9.000E+00
#rwgt            1           9   6.5629266817132821E-004           4       26977           0
</event>
<event>
      6   9999  3.45752E-01  2.23855E+00 -1.00000E+00  3.15036E-01
      21    -1     0     0   501   502  0.000000000E+00  0.000000000E+00  2.880531037E+01  2.880531037E+01  0.000000000E+00  0.00000E+00  9.000E+00
      21    -1     0     0   511   503  0.000000000E+00  0.000000000E+00 -1.122685049E+03  1.122685049E+03  0.000000000E+00  0.00000E+00  9.000E+00
      25     1     1     2     0     0  6.956641210E+01 -3.285299701E+01 -7.987080222E+02  8.120823568E+02  1.249977781E+02  0.00000E+00  9.000E+00
       5     1     1     2   501     0  3.947979217E+00  1.703711290E+00  1.642869267E+01  1.763387691E+01  4.750000000E+00  0.00000E+00  9.000E+00
      -5     1     1     2     0   503 -7.178720444E+01  2.972523480E+01 -2.984578003E+02  3.084422367E+02  4.750000000E+00  0.00000E+00  9.000E+00
      21     1     1     2   511   502 -1.727186875E+00  1.424050914E+00 -1.314260907E+01  1.333188916E+01  2.384185791E-07  0.00000E+00  9.000E+00
#rwgt            1           9   1.0952858247776872E-003           4       29058           0
</event>
<event>
      6   9999  3.45752E-01  4.49207E+00 -1.00000E+00  2.37863E-01
       2    -1     0     0   501     0  0.000000000E+00  0.000000000E+00  6.701650872E+00  6.701650872E+00  0.000000000E+00  0.00000E+00  9.000E+00
      21    -1     0     0   502   503  0.000000000E+00  0.000000000E+00 -3.336096696E+03  3.336096696E+03  0.000000000E+00  0.00000E+00  9.000E+00
      25     1     1     2     0     0 -2.348777692E+00  2.650287425E+00 -3.165280981E+03  3.167750035E+03  1.249962227E+02  0.00000E+00  9.000E+00
       5     1     1     2   501     0  1.451995639E+00 -2.523197071E-02 -7.515464455E+00  9.008531177E+00  4.750000000E+00  0.00000E+00  9.000E+00
      -5     1     1     2     0   503  1.724551833E+00  1.790084538E+00 -1.601954500E+02  1.602851309E+02  4.750000000E+00  0.00000E+00  9.000E+00
       2     1     1     2   502     0 -8.277697801E-01 -4.415139992E+00  3.596850145E+00  5.754649852E+00  1.413648275E-06  0.00000E+00  9.000E+00
#rwgt            1           9   4.0531767209008517E-004           4       38350           0
</event>
<event>
      6   9999  3.45752E-01  1.00858E+01 -1.00000E+00  1.86804E-01
      21    -1     0     0   501   502  0.000000000E+00  0.000000000E+00  4.714970237E+01  4.714970237E+01  0.000000000E+00  0.00000E+00  9.000E+00
      21    -1     0     0   502   511  0.000000000E+00  0.000000000E+00 -7.823391129E+02  7.823391129E+02  0.000000000E+00  0.00000E+00  9.000E+00
      25     1     1     2     0     0 -4.437102496E+01 -1.063423972E+02 -2.762783304E+02  3.244050171E+02  1.250256211E+02  0.00000E+00  9.000E+00
       5     1     1     2   501     0 -2.116457514E+00  1.587331817E+00  1.579197014E+01  1.670173152E+01  4.750000000E+00  0.00000E+00  9.000E+00
      -5     1     1     2     0   503  4.156393406E+01  9.595267874E+01 -4.305736825E+02  4.431148110E+02  4.750000000E+00  0.00000E+00  9.000E+00
      21     1     1     2   503   511  4.923548413E+00  8.802386623E+00 -4.412936773E+01  4.526725566E+01  4.768371582E-07  0.00000E+00  9.000E+00
#rwgt            1           9  0.88797152643067445                4       42296           0
</event>
<event>
      6   9999 -3.45752E-01  2.62217E+01 -1.00000E+00  1.51722E-01
      21    -1     0     0   501   502  0.000000000E+00  0.000000000E+00  5.709857104E+02  5.709857104E+02  0.000000000E+00  0.00000E+00  9.000E+00
      21    -1     0     0   512   503  0.000000000E+00  0.000000000E+00 -1.235388165E+03  1.235388165E+03  0.000000000E+00  0.00000E+00  9.000E+00
      25     1     1     2     0     0  2.808733454E+01  2.430830917E+01 -2.320573227E+02  2.661865816E+02  1.249996118E+02  0.00000E+00  9.000E+00
       5     1     1     2   501     0 -6.808629107E+00  1.317664547E+01  4.802228188E+02  4.804752851E+02  4.750000000E+00  0.00000E+00  9.000E+00
      -5     1     1     2     0   503 -1.012466699E+01 -1.375388847E+01  7.232719102E+01  7.446786817E+01  4.750000000E+00  0.00000E+00  9.000E+00
      21     1     1     2   512   502 -1.115403844E+01 -2.373106617E+01 -9.848951418E+02  9.852441405E+02  1.078959322E-05  0.00000E+00  9.000E+00
#rwgt            1           9  -2.7926954468712202E-004           4       45805           0
</event>
<event>
      6   9999  3.45752E-01  7.37403E+00 -1.00000E+00  2.02299E-01
      21    -1     0     0   501   511  0.000000000E+00  0.000000000E+00  1.705264779E+02  1.705264779E+02  0.000000000E+00  0.00000E+00  9.000E+00
      21    -1     0     0   502   503  0.000000000E+00  0.000000000E+00 -2.215317450E+02  2.215317450E+02  0.000000000E+00  0.00000E+00  9.000E+00
      25     1     1     2     0     0 -2.644352937E+01  2.737626507E+01  8.253023996E+01  1.545422608E+02  1.249933987E+02  0.00000E+00  9.000E+00
       5     1     1     2   501     0 -1.888124928E+00 -1.124119812E+00  4.380187186E+01  4.411343491E+01  4.750000000E+00  0.00000E+00  9.000E+00
      -5     1     1     2     0   503  2.617610856E+01 -1.920019953E+01 -1.818310096E+02  1.847671910E+02  4.750000000E+00  0.00000E+00  9.000E+00
      21     1     1     2   502   511  2.155545730E+00 -7.051945723E+00  4.493630632E+00  8.635336249E+00  1.685873940E-07  0.00000E+00  9.000E+00
#rwgt            1           9   6.0894671669501071E-004           4       49010           0
</event>
<event>
      6   9999  3.45752E-01  1.24854E+01 -1.00000E+00  1.77580E-01
       3    -1     0     0   501     0  0.000000000E+00  0.000000000E+00  5.727748399E+01  5.727748399E+01  0.000000000E+00  0.00000E+00  9.000E+00
      21    -1     0     0   502   503  0.000000000E+00  0.000000000E+00 -8.569314643E+02  8.569314643E+02  0.000000000E+00  0.00000E+00  9.000E+00
      25     1     1     2     0     0 -4.919043374E+00  3.492342208E+01 -7.549364295E+02  7.660288657E+02  1.250094716E+02  0.00000E+00  9.000E+00
       5     1     1     2   501     0 -4.441539452E-01  4.440082145E-01  3.674123631E+00  6.037888743E+00  4.750000000E+00  0.00000E+00  9.000E+00
      -5     1     1     2     0   503  4.434712138E+00 -2.291659282E+01 -9.290549929E+01  9.591053747E+01  4.750000000E+00  0.00000E+00  9.000E+00
       3     1     1     2   502     0  9.284851813E-01 -1.245083747E+01  4.451382494E+01  4.623165635E+01  1.168007728E-06  0.00000E+00  9.000E+00
#rwgt            1           9   9.8117277800979720E-004           4       53289           0
</event>
<event>
      6   9999  3.45752E-01  2.61830E+01 -1.00000E+00  1.51766E-01
      21    -1     0     0   511   502  0.000000000E+00  0.000000000E+00  2.878500185E+01  2.878500185E+01  0.000000000E+00  0.00000E+00  9.000E+00
      21    -1     0     0   502   503  0.000000000E+00  0.000000000E+00 -8.935750140E+02  8.935750140E+02  0.000000000E+00  0.00000E+00  9.000E+00
      25     1     1     2     0     0  1.598804204E+00  2.361652339E+01 -8.390683697E+02  8.486583938E+02  1.250001759E+02  0.00000E+00  9.000E+00
       5     1     1     2   501     0 -3.428630472E+00  5.691801818E+00  7.151591113E+00  1.085632858E+01  4.750000000E+00  0.00000E+00  9.000E+00
      -5     1     1     2     0   503 -1.501302225E+00 -3.338132684E+00 -3.598214451E+01  3.647840816E+01  4.750000000E+00  0.00000E+00  9.000E+00
      21     1     1     2   511   501  3.331128493E+00 -2.597019253E+01  3.108910899E+00  2.636688537E+01  1.133272251E-06  0.00000E+00  9.000E+00
#rwgt            1           9   8.9148285409254953E-005           4       55707           0
</event>
<event>
      6   9999  3.45752E-01  2.42051E+01 -1.00000E+00  1.54132E-01
      21    -1     0     0   501   502  0.000000000E+00  0.000000000E+00  1.379929112E+01  1.379929112E+01  0.000000000E+00  0.00000E+00  9.000E+00
      21    -1     0     0   502   512  0.000000000E+00  0.000000000E+00 -2.332489405E+03  2.332489405E+03  0.000000000E+00  0.00000E+00  9.000E+00
      25     1     1     2     0     0  3.318108835E+00  1.092981988E+01 -1.862679904E+03  1.866904363E+03  1.250000123E+02  0.00000E+00  9.000E+00
       5     1     1     2   501     0 -9.256231645E+00  5.574616870E+00  7.986344690E+00  1.425125886E+01  4.750000000E+00  0.00000E+00  9.000E+00
      -5     1     1     2     0   503 -3.365266523E+00  5.841354447E+00 -1.076932650E+02  1.080085564E+02  4.750000000E+00  0.00000E+00  9.000E+00
      21     1     1     2   503   512  9.303389332E+00 -2.234579120E+01 -3.563032899E+02  3.571245186E+02  3.814697266E-06  0.00000E+00  9.000E+00
#rwgt            1           9   3.5839708288037047                4       56830           0
</event>
<event>
      6   9999  3.45752E-01  8.06702E+00 -1.00000E+00  1.97587E-01
       2    -1     0     0   501     0  0.000000000E+00  0.000000000E+00  8.778064230E+02  8.778064230E+02  0.000000000E+00  0.00000E+00  9.000E+00
      21    -1     0     0   502   503  0.000000000E+00  0.000000000E+00 -1.046573973E+03  1.046573973E+03  0.000000000E+00  0.00000E+00  9.000E+00
      25     1     1     2     0     0  1.364490942E+00  5.931416107E+00 -9.047459238E+02  9.133604196E+02  1.250001032E+02  0.00000E+00  9.000E+00
       5     1     1     2   501     0  1.044520512E+00 -6.974149847E+00  1.840680152E+01  2.027566599E+01  4.750000000E+00  0.00000E+00  9.000E+00
      -5     1     1     2     0   503 -3.189871100E+00 -6.986403969E+00 -1.364180376E+02  1.367165996E+02  4.750000000E+00  0.00000E+00  9.000E+00
       2     1     1     2   502     0  7.808596462E-01  8.029137709E+00  8.539896100E+02  8.540277108E+02  1.078959322E-05  0.00000E+00  9.000E+00
#rwgt            1           9   1.2458988199580540E-003           4       58630           0
</event>
<event>
      6   9999  3.45752E-01  2.46594E+00 -1.00000E+00  3.01257E-01
      21    -1     0     0   501   502  0.000000000E+00  0.000000000E+00  2.357487342E+03  2.357487342E+03  0.000000000E+00  0.00000E+00  9.000E+00
      21    -1     0     0   511   503  0.000000000E+00  0.000000000E+00 -6.197940558E+00  6.197940558E+00  0.000000000E+00  0.00000E+00  9.000E+00
      25     1     1     2     0     0  6.145002090E+00  1.316754073E+01  7.112235838E+02  7.222732347E+02  1.250139757E+02  0.00000E+00  9.000E+00
       5     1     1     2   501     0  9.012906637E-01  7.546329645E-01  1.251196804E+03  1.251206372E+03  4.750000000E+00  0.00000E+00  9.000E+00
      -5     1     1     2     0   503 -8.539363441E+00 -1.588472108E+01  3.858815114E+02  3.863319148E+02  4.750000000E+00  0.00000E+00  9.000E+00
      21     1     1     2   511   502  1.493070688E+00  1.962547386E+00  2.987502880E+00  3.873761193E+00  3.885747436E-07  0.00000E+00  9.000E+00
#rwgt            1           9   4.7400293971551580E-004           4       62092           0
</event>
<event>
      6   9999  3.45752E-01  4.39087E+00 -1.00000E+00  2.39757E-01
      21    -1     0     0   501   502  0.000000000E+00  0.000000000E+00  1.220038698E+01  1.220038698E+01  0.000000000E+00  0.00000E+00  9.000E+00
      21    -1     0     0   502   512  0.000000000E+00  0.000000000E+00 -2.801669242E+03  2.801669242E+03  0.000000000E+00  0.00000E+00  9.000E+00
      25     1     1     2     0     0 -1.910523513E+01 -2.154427580E+01 -4.145872852E+02  4.339779096E+02  1.250001724E+02  0.00000E+00  9.000E+00
       5     1     1     2   501     0  6.344186305E-01 -5.022413725E-02 -7.795398922E-01  4.855429117E+00  4.750000000E+00  0.00000E+00  9.000E+00
      -5     1     1     2     0   503  1.654522432E+01  2.554062173E+01 -5.100518866E+02  5.109809755E+02  4.750000000E+00  0.00000E+00  9.000E+00
      21     1     1     2   503   512  1.925592180E+00 -3.946121785E+00 -1.864050143E+03  1.864055315E+03  3.051757812E-05  0.00000E+00  9.000E+00
#rwgt            1           9   1.1491129845782577E-004           4       69123           0
</event>
<event>
      6   9999  3.45752E-01  5.03029E+00 -1.00000E+00  2.25309E-01
      21    -1     0     0   501   502  0.000000000E+00  0.000000000E+00  4.711939407E+01  4.711939407E+01  0.000000000E+00  0.00000E+00  9.000E+00
       1    -1     0     0   502     0  0.000000000E+00  0.000000000E+00 -1.036560323E+03  1.036560323E+03  0.000000000E+00  0.00000E+00  9.000E+00
      25     1     1     2     0     0 -5.109047534E+00  8.701925201E+00 -4.897420545E+01  1.346295509E+02  1.249992692E+02  0.00000E+00  9.000E+00
       5     1     1     2   501     0 -1.609106777E+00 -4.860228511E+00 -3.553200045E+00  7.835737129E+00  4.750000000E+00  0.00000E+00  9.000E+00
      -5     1     1     2     0   503  2.122170306E+00 -5.886387377E+00 -5.053785270E+00  9.341113890E+00  4.750000000E+00  0.00000E+00  9.000E+00
       1     1     1     2   503     0  4.595984004E+00  2.044690687E+00 -9.318597384E+02  9.318733154E+02  1.078959322E-05  0.00000E+00  9.000E+00
#rwgt            1           9   8.0892908570181585E-003           4       73507           0
</event>
<event>
      6   9999 -3.45752E-01  1.11756E+01 -1.00000E+00  1.82249E-01
      21    -1     0     0   501   502  0.000000000E+00  0.000000000E+00  8.202471745E+00  8.202471745E+00  0.000000000E+00  0.00000E+00  9.000E+00
      21    -1     0     0   502   511  0.000000000E+00  0.000000000E+00 -8.531222349E+02  8.531222349E+02  0.000000000E+00  0.00000E+00  9.000E+00
      25     1     1     2     0     0 -1.223724918E+01 -3.146098535E+00 -5.440057669E+02  5.583253525E+02  1.250011063E+02  0.00000E+00  9.000E+00
       5     1     1     2   501     0 -1.599375971E+00 -3.461168242E+00 -1.102836107E+02  1.104516862E+02  4.750000000E+00  0.00000E+00  9.000E+00
      -5     1     1     2     0   503  1.249365976E+01 -4.487333358E+00 -7.033260148E+01  7.173189685E+01  4.750000000E+00  0.00000E+00  9.000E+00
      21     1     1     2   503   511  1.342965392E+00  1.109460014E+01 -1.202977841E+02  1.208157712E+02  2.336015456E-06  0.00000E+00  9.000E+00
#rwgt            1           9  -1.4029628405727865E-003           4       77150           0
</event>
<event>
      6   9999  3.45752E-01  7.91105E+00 -1.00000E+00  1.98592E-01
       2    -1     0     0   501     0  0.000000000E+00  0.000000000E+00  4.136428725E+01  4.136428725E+01  0.000000000E+00  0.00000E+00  9.000E+00
      21    -1     0     0   502   503  0.000000000E+00  0.000000000E+00 -8.008181892E+02  8.008181892E+02  0.000000000E+00  0.00000E+00  9.000E+00
      25     1     1     2     0     0 -7.649517904E+00  6.943597739E+00 -6.885556864E+02  6.998854676E+02  1.249960228E+02  0.00000E+00  9.000E+00
       5     1     1     2   501     0  2.112368248E+00  4.026036880E-01  2.291445295E+00  5.695385052E+00  4.750000000E+00  0.00000E+00  9.000E+00
      -5     1     1     2     0   503  8.535671004E+00 -2.543311965E-02 -1.041700811E+02  1.046270836E+02  4.750000000E+00  0.00000E+00  9.000E+00
       2     1     1     2   502     0 -2.998521348E+00 -7.320768308E+00  3.098042032E+01  3.197454022E+01  1.651812370E-06  0.00000E+00  9.000E+00
#rwgt            1           9   3.7700015093180259E-003           4       79193           0
</event>
<event>
      6   9999 -3.45752E-01  2.39462E+01 -1.00000E+00  1.54462E-01
      21    -1     0     0   511   502  0.000000000E+00  0.000000000E+00  5.296972867E+02  5.296972867E+02  0.000000000E+00  0.00000E+00  9.000E+00
      21    -1     0     0   502   503  0.000000000E+00  0.000000000E+00 -1.558436822E+02  1.558436822E+02  0.000000000E+00  0.00000E+00  9.000E+00
      25     1     1     2     0     0 -2.511215398E+01  4.485603651E+01 -1.089562552E+02  1.736073124E+02  1.250013964E+02  0.00000E+00  9.000E+00
       5     1     1     2   501     0 -6.575272420E-01  2.201426909E-01  4.361327338E+02  4.361591507E+02  4.750000000E+00  0.00000E+00  9.000E+00
      -5     1     1     2     0   503  3.963830120E+00 -3.518050987E+01  2.687542956E+01  4.470158205E+01  4.750000000E+00  0.00000E+00  9.000E+00
      21     1     1     2   511   501  2.180585110E+01 -9.895669329E+00  1.980169627E+01  3.107292373E+01  2.384185791E-07  0.00000E+00  9.000E+00
#rwgt            1           9  -1.4384346231346510                4       81916           0
</event>
<event>
      6   9999  3.45752E-01  8.74830E+00 -1.00000E+00  1.93526E-01
      21    -1     0     0   501   502  0.000000000E+00  0.000000000E+00  3.921628016E+01  3.921628016E+01  0.000000000E+00  0.00000E+00  9.000E+00
      21    -1     0     0   512   503  0.000000000E+00  0.000000000E+00 -1.370016975E+03  1.370016975E+03  0.000000000E+00  0.00000E+00  9.000E+00
      25     1     1     2     0     0  1.790138952E+01 -1.478911158E+02 -4.113250470E+02  4.549780429E+02  1.249979336E+02  0.00000E+00  9.000E+00
       5     1     1     2   501     0  3.146028452E+01  8.453255051E+00 -2.370092889E+01  4.056480683E+01  4.750000000E+00  0.00000E+00  9.000E+00
      -5     1     1     2     0   503 -4.455006110E+01  1.467440979E+02 -6.539713702E+02  6.717288543E+02  4.750000000E+00  0.00000E+00  9.000E+00
      21     1     1     2   512   502 -4.811612937E+00 -7.306237124E+00 -2.418033493E+02  2.419615516E+02  2.697398305E-06  0.00000E+00  9.000E+00
#rwgt            1           9   5.4680354044197546E-004           4       84031           0
</event>
<event>
      6   9999  3.45752E-01  1.34608E+01 -1.00000E+00  1.74550E-01
      21    -1     0     0   501   502  0.000000000E+00  0.000000000E+00  2.491951156E+01  2.491951156E+01  0.000000000E+00  0.00000E+00  9.000E+00
      21    -1     0     0   511   503  0.000000000E+00  0.000000000E+00 -1.637631395E+03  1.637631395E+03  0.000000000E+00  0.00000E+00  9.000E+00
      25     1     1     2     0     0  6.151162446E+00 -1.252347404E+01 -2.406371508E+02  2.715246539E+02  1.249989005E+02  0.00000E+00  9.000E+00
       5     1     1     2   501     0 -7.985612329E-02 -1.258921651E+00  7.331663061E+00  8.826496698E+00  4.750000000E+00  0.00000E+00  9.000E+00
      -5     1     1     2     0   503 -2.799425376E+00  7.252525187E-01 -4.305468112E+00  7.032945991E+00  4.750000000E+00  0.00000E+00  9.000E+00
      21     1     1     2   511   502 -3.271880947E+00  1.305714317E+01 -1.375100927E+03  1.375166810E+03  3.411968960E-05  0.00000E+00  9.000E+00
#rwgt            1           9   3.6867574834280529E-003           4       88301           0
</event>
<event>
      6   9999  3.45752E-01  1.02755E+01 -1.00000E+00  1.85959E-01
      21    -1     0     0   501   512  0.000000000E+00  0.000000000E+00  3.187028249E+02  3.187028249E+02  0.000000000E+00  0.00000E+00  9.000E+00
      21    -1     0     0   502   503  0.000000000E+00  0.000000000E+00 -2.284570526E+03  2.284570526E+03  0.000000000E+00  0.00000E+00  9.000E+00
      25     1     1     2     0     0 -5.683059813E+01 -1.660004841E+02 -1.798939173E+03  1.811792709E+03  1.249991744E+02  0.00000E+00  9.000E+00
       5     1     1     2   501     0  8.529388394E+00 -1.117739714E+01  3.338156765E+01  3.653185230E+01  4.750000000E+00  0.00000E+00  9.000E+00
      -5     1     1     2     0   503  5.678665293E+01  1.713828070E+02 -4.604508191E+02  4.946052060E+02  4.750000000E+00  0.00000E+00  9.000E+00
      21     1     1     2   502   512 -8.485443189E+00  5.795074241E+00  2.601407234E+02  2.603435838E+02  1.078959322E-05  0.00000E+00  9.000E+00
#rwgt            1           9   4.6572194209743950E-004           4       90069           0
</event>
<event>
      6   9999  3.45752E-01  1.74038E+01 -1.00000E+00  1.64961E-01
       4    -1     0     0   501     0  0.000000000E+00  0.000000000E+00  2.831941189E+02  2.831941189E+02  0.000000000E+00  0.00000E+00  9.000E+00
      21    -1     0     0   502   503  0.000000000E+00  0.000000000E+00 -1.249743744E+03  1.249743744E+03  0.000000000E+00  0.00000E+00  9.000E+00
      25     1     1     2     0     0 -6.077537385E+01  2.010669876E+01 -9.959659061E+02  1.005818191E+03  1.249968860E+02  0.00000E+00  9.000E+00
       5     1     1     2   501     0  4.299398981E-01  6.253723009E-01  3.334750049E+01  3.369264353E+01  4.750000000E+00  0.00000E+00  9.000E+00
      -5     1     1     2     0   503  4.431432959E+01 -2.750664319E+01 -2.456052215E+02  2.511271840E+02  4.750000000E+00  0.00000E+00  9.000E+00
       4     1     1     2   502     0  1.603110436E+01  6.774572130E+00  2.416740023E+02  2.422998442E+02  3.814697266E-06  0.00000E+00  9.000E+00
#rwgt            1           9   1.3305501711596593E-004           4       95008           0
</event>
<event>
      6   9999  3.45752E-01  6.91419E+00 -1.00000E+00  2.05824E-01
      21    -1     0     0   511   502  0.000000000E+00  0.000000000E+00  1.279849184E+02  1.279849184E+02  0.000000000E+00  0.00000E+00  9.000E+00
      21    -1     0     0   502   503  0.000000000E+00  0.000000000E+00 -1.282805240E+02  1.282805240E+02  0.000000000E+00  0.00000E+00  9.000E+00
      25     1     1     2     0     0 -2.662028052E+00  6.825116045E+00 -6.081799385E+01  1.392044522E+02  1.250015301E+02  0.00000E+00  9.000E+00
       5     1     1     2   501     0 -7.155488009E-02 -3.627915502E-01  3.061389780E+00  5.663156823E+00  4.750000000E+00  0.00000E+00  9.000E+00
      -5     1     1     2     0   503 -3.610522306E+00 -9.211563758E+00 -2.570238649E+01  2.794752135E+01  4.750000000E+00  0.00000E+00  9.000E+00
      21     1     1     2   511   501  6.344105238E+00  2.749239264E+00  8.316338494E+01  8.345031206E+01  9.536743164E-07  0.00000E+00  9.000E+00
#rwgt            1           9   6.9368539375886676E-002           4       97670           0
</event>
<event>
      6   9999  3.45752E-01  3.34330E+01 -1.00000E+00  1.44857E-01
      21    -1     0     0   512   502  0.000000000E+00  0.000000000E+00  1.285938954E+03  1.285938954E+03  0.000000000E+00  0.00000E+00  9.000E+00
      21    -1     0     0   502   503  0.000000000E+00  0.000000000E+00 -3.146738761E+01  3.146738761E+01  0.000000000E+00  0.00000E+00  9.000E+00
      25     1     1     2     0     0 -8.006063384E+01  1.163120019E+02  4.897913824E+02  5.248421807E+02  1.250021180E+02  0.00000E+00  9.000E+00
       5     1     1     2   501     0  6.911787741E+01 -1.520658397E+02  5.987506665E+02  6.216319037E+02  4.750000000E+00  0.00000E+00  9.000E+00
      -5     1     1     2     0   503  5.241666276E+00  2.810547544E+00  2.956245286E+01  3.052663365E+01  4.750000000E+00  0.00000E+00  9.000E+00
      21     1     1     2   512   501  5.701090151E+00  3.294329026E+01  1.363670648E+02  1.404056237E+02  1.907348633E-06  0.00000E+00  9.000E+00
#rwgt            1           9   6.0701925815405816E-002           4      100682           0
</event>
<event>
      6   9999 -3.45752E-01  1.48048E+01 -1.00000E+00  1.70866E-01
      21    -1     0     0   501   511  0.000000000E+00  0.000000000E+00  1.629402268E+02  1.629402268E+02  0.000000000E+00  0.00000E+00  9.000E+00
      21    -1     0     0   502   503  0.000000000E+00  0.000000000E+00 -1.687286109E+02  1.687286109E+02  0.000000000E+00  0.00000E+00  9.000E+00
      25     1     1     2     0     0  2.548696482E+01  3.149905204E+01 -1.267369805E+02  1.825578272E+02  1.249932894E+02  0.00000E+00  9.000E+00
       5     1     1     2   501     0  8.875448955E+00 -2.115355927E-01  8.893562622E+01  8.950377899E+01  4.750000000E+00  0.00000E+00  9.000E+00
      -5     1     1     2     0   503 -1.975330766E+01 -2.888851467E+01  2.467931526E+01  4.308561877E+01  4.750000000E+00  0.00000E+00  9.000E+00
      21     1     1     2   502   511 -1.460910612E+01 -2.399001777E+00  7.333654866E+00  1.652161266E+01  3.475518164E-07  0.00000E+00  9.000E+00
#rwgt            1           9  -1.2488927176580344E-005           4      101763           0
</event>
<event>
      6   9999 -3.45752E-01  9.06023E+00 -1.00000E+00  1.91824E-01
       2    -1     0     0   501     0  0.000000000E+00  0.000000000E+00  1.117062004E+03  1.117062004E+03  0.000000000E+00  0.00000E+00  9.000E+00
      21    -1     0     0   502   503  0.000000000E+00  0.000000000E+00 -1.108844222E+02  1.108844222E+02  0.000000000E+00  0.00000E+00  9.000E+00
      25     1     1     2     0     0  8.178255986E+00 -1.918981185E+01 -6.704411980E+01  1.433696977E+02  1.249992939E+02  0.00000E+00  9.000E+00
       5     1     1     2   501     0  8.222867717E+00  4.791151366E+00  1.953698494E+02  1.956591711E+02  4.750000000E+00  0.00000E+00  9.000E+00
      -5     1     1     2     0   503 -8.114295656E+00  1.073584718E+01  3.732265499E+00  1.475101741E+01  4.750000000E+00  0.00000E+00  9.000E+00
       2     1     1     2   502     0 -8.286828047E+00  3.662813298E+00  8.741195872E+02  8.741665404E+02  1.078959322E-05  0.00000E+00  9.000E+00
#rwgt            1           9  -1.8242711577110250E-002           4      104083           0
</event>
<event>
      6   9999  3.45752E-01  1.01937E+01 -1.00000E+00  1.86320E-01
      21    -1     0     0   501   502  0.000000000E+00  0.000000000E+00  2.447050082E+01  2.447050082E+01  0.000000000E+00  0.00000E+00  9.000E+00
      21    -1     0     0   511   503  0.000000000E+00  0.000000000E+00 -1.143941956E+03  1.143941956E+03  0.000000000E+00  0.00000E+00  9.000E+00
      25     1     1     2     0     0  3.895789986E+01  1.491692643E+01 -6.938606509E+02  7.062632032E+02  1.249995065E+02  0.00000E+00  9.000E+00
       5     1     1     2   501     0  1.832333342E+00 -5.759508422E+00  1.638390860E+01  1.809763365E+01  4.750000000E+00  0.00000E+00  9.000E+00
      -5     1     1     2     0   503 -3.060493236E+01 -9.571375648E+00 -3.474658778E+02  3.489747438E+02  4.750000000E+00  0.00000E+00  9.000E+00
      21     1     1     2   511   502 -1.018530084E+01  4.139576379E-01 -9.452883482E+01  9.507687588E+01  1.907348633E-06  0.00000E+00  9.000E+00
#rwgt            1           9   4.9123738897397645E-004           4      107924           0
</event>
<event>
      6   9999  3.45752E-01  5.46373E+01 -1.00000E+00  1.32758E-01
      21    -1     0     0   501   502  0.000000000E+00  0.000000000E+00  5.599338059E+02  5.599338059E+02  0.000000000E+00  0.00000E+00  9.000E+00
      21    -1     0     0   502   512  0.000000000E+00  0.000000000E+00 -7.686488296E+02  7.686488296E+02  0.000000000E+00  0.00000E+00  9.000E+00
      25     1     1     2     0     0 -3.294293290E+01  7.236095193E+00 -5.581107936E+02  5.729347355E+02  1.250158200E+02  0.00000E+00  9.000E+00
       5     1     1     2   501     0 -1.076209110E+00  6.024313599E+00  5.359384368E+02  5.359944227E+02  4.750000000E+00  0.00000E+00  9.000E+00
      -5     1     1     2     0   503 -1.296093173E+01 -4.115499830E+01 -2.725419369E+01  5.125498230E+01  4.750000000E+00  0.00000E+00  9.000E+00
      21     1     1     2   503   512  4.698007374E+01  2.789458951E+01 -1.592884732E+02  1.683984951E+02  0.000000000E+00  0.00000E+00  9.000E+00
#rwgt            1           9   5.0818619888916360E-007           4      110733           0
</event>
<event>
      6   9999  3.45752E-01  1.01688E+01 -1.00000E+00  1.86431E-01
      21    -1     0     0   502   503  0.000000000E+00  0.000000000E+00  8.762450814E+00  8.762450814E+00  0.000000000E+00  0.00000E+00  9.000E+00
      21    -1     0     0   501   511  0.000000000E+00  0.000000000E+00 -9.926181850E+02  9.926181850E+02  0.000000000E+00  0.00000E+00  9.000E+00
      25     1     1     2     0     0 -4.323913758E+00  7.137399182E+00 -4.643516740E+02  4.809538262E+02  1.249978681E+02  0.00000E+00  9.000E+00
       5     1     1     2   501     0  3.107388097E-01  6.913434600E+00 -2.430995935E+02  2.432444593E+02  4.750000000E+00  0.00000E+00  9.000E+00
      -5     1     1     2     0   503  7.530663503E-01 -4.418786596E+00 -3.771101410E+01  3.827239042E+01  4.750000000E+00  0.00000E+00  9.000E+00
      21     1     1     2   502   511  3.260108598E+00 -9.632047187E+00 -2.386934526E+02  2.389099600E+02  2.697398305E-06  0.00000E+00  9.000E+00
#rwgt            1           9  0.25467167917396250                4      112537           0
</event>
<event>
      6   9999  3.45752E-01  7.21739E+00 -1.00000E+00  2.03460E-01
      21    -1     0     0   501   502  0.000000000E+00  0.000000000E+00  1.736846880E+01  1.736846880E+01  0.000000000E+00  0.00000E+00  9.000E+00
      21    -1     0     0   502   512  0.000000000E+00  0.000000000E+00 -1.162173710E+03  1.162173710E+03  0.000000000E+00  0.00000E+00  9.000E+00
      25     1     1     2     0     0 -2.182596265E+01 -2.726199872E+01 -5.744096712E+02  5.888894233E+02  1.249987731E+02  0.00000E+00  9.000E+00
       5     1     1     2   501     0 -1.784007267E+00 -5.494722954E-01  8.178599081E+00  9.640362268E+00  4.750000000E+00  0.00000E+00  9.000E+00
      -5     1     1     2     0   503  3.075083532E+01  2.885971539E+01 -5.460672586E+02  5.477138947E+02  4.750000000E+00  0.00000E+00  9.000E+00
      21     1     1     2   503   512 -7.140865405E+00 -1.048244373E+00 -3.250691017E+01  3.329849822E+01  0.000000000E+00  0.00000E+00  9.000E+00
#rwgt            1           9   2.6176852092385445                4      114835           0
</event>
<event>
      6   9999  3.45752E-01  2.22070E+00 -1.00000E+00  3.16236E-01
      21    -1     0     0   501   502  0.000000000E+00  0.000000000E+00  6.158792989E+00  6.158792989E+00  0.000000000E+00  0.00000E+00  9.000E+00
      21    -1     0     0   511   503  0.000000000E+00  0.000000000E+00 -2.481186607E+03  2.481186607E+03  0.000000000E+00  0.00000E+00  9.000E+00
      25     1     1     2     0     0 -2.153183280E+01 -2.625393011E+01 -1.082159192E+03  1.089883432E+03  1.249979625E+02  0.00000E+00  9.000E+00
       5     1     1     2   501     0  1.172796649E+00 -1.248070812E+00 -1.128430054E+00  5.173875445E+00  4.750000000E+00  0.00000E+00  9.000E+00
      -5     1     1     2     0   503  1.915596702E+01  2.936858799E+01 -1.364096838E+03  1.364555682E+03  4.750000000E+00  0.00000E+00  9.000E+00
      21     1     1     2   511   502  1.203069134E+00 -1.866587065E+00 -2.764335467E+01  2.773241029E+01  0.000000000E+00  0.00000E+00  9.000E+00
#rwgt            1           9   6.1746690674254388E-002           4      118556           0
</event>
<event>
      6   9999  3.45752E-01  1.70929E+01 -1.00000E+00  1.65598E-01
      21    -1     0     0   512   503  0.000000000E+00  0.000000000E+00  9.774994456E+00  9.774994456E+00  0.000000000E+00  0.00000E+00  9.000E+00
      21    -1     0     0   501   502  0.000000000E+00  0.000000000E+00 -7.732397244E+02  7.732397244E+02  0.000000000E+00  0.00000E+00  9.000E+00
      25     1     1     2     0     0 -9.043317737E+00  2.416039030E+01 -6.646328682E+02  6.767783984E+02  1.250065797E+02  0.00000E+00  9.000E+00
       5     1     1     2   501     0 -2.120758457E+00 -3.015789133E+00 -2.684396777E+01  2.750915677E+01  4.750000000E+00  0.00000E+00  9.000E+00
      -5     1     1     2     0   503 -1.056814140E+00 -9.193949366E+00 -4.893639778E+01  5.002978202E+01  4.750000000E+00  0.00000E+00  9.000E+00
      21     1     1     2   512   502  1.222089033E+01 -1.195065180E+01 -2.305149618E+01  2.869738168E+01  9.536743164E-07  0.00000E+00  9.000E+00
#rwgt            1           9   6.0127782507861896E-002           4      127224           0
</event>
<event>
      6   9999  3.45752E-01  1.27561E+01 -1.00000E+00  1.76705E-01
      21    -1     0     0   501   502  0.000000000E+00  0.000000000E+00  1.313281513E+01  1.313281513E+01  0.000000000E+00  0.00000E+00  9.000E+00
      21    -1     0     0   511   503  0.000000000E+00  0.000000000E+00 -1.413936121E+03  1.413936121E+03  0.000000000E+00  0.00000E+00  9.000E+00
      25     1     1     2     0     0 -1.131624624E+01  1.917271429E+01 -8.260900857E+02  8.357902046E+02  1.249991442E+02  0.00000E+00  9.000E+00
       5     1     1     2   501     0 -4.159274460E+00  2.027701626E-01  4.574929446E+00  7.799561475E+00  4.750000000E+00  0.00000E+00  9.000E+00
      -5     1     1     2     0   503  4.353710484E+00 -1.312865038E+01 -2.441905568E+01  2.846346845E+01  4.750000000E+00  0.00000E+00  9.000E+00
      21     1     1     2   511   502  1.112181021E+01 -6.246834065E+00 -5.548690944E+02  5.550157021E+02  7.629394531E-06  0.00000E+00  9.000E+00
#rwgt            1           9   2.0122215067747287E-005           4      128591           0
</event>
<event>
      6   9999  3.45752E-01  1.13682E+02 -1.00000E+00  1.18115E-01
      21    -1     0     0   501   502  0.000000000E+00  0.000000000E+00  3.138277577E+01  3.138277577E+01  0.000000000E+00  0.00000E+00  9.000E+00
      21    -1     0     0   512   503  0.000000000E+00  0.000000000E+00 -1.526385189E+03  1.526385189E+03  0.000000000E+00  0.00000E+00  9.000E+00
      25     1     1     2     0     0  9.836693734E+01 -1.488057899E+02 -8.520292893E+02  8.794307525E+02  1.250012849E+02  0.00000E+00  9.000E+00
       5     1     1     2   501     0  2.729728477E+00  1.230955955E+00  3.756245392E+00  6.755630952E+00  4.750000000E+00  0.00000E+00  9.000E+00
      -5     1     1     2     0   503 -4.684140408E+01  4.767502584E+01 -2.208709595E+02  2.308106767E+02  4.750000000E+00  0.00000E+00  9.000E+00
      21     1     1     2   512   502 -5.425526173E+01  9.989980815E+01 -4.258584098E+02  4.407709045E+02  0.000000000E+00  0.00000E+00  9.000E+00
#rwgt            1           9   5.4140235733651006E-003           4      130714           0
</event>
<event>
      6   9999  3.45752E-01  3.74593E+00 -1.00000E+00  2.53900E-01
      21    -1     0     0   501   511  0.000000000E+00  0.000000000E+00  3.206510460E+02  3.206510460E+02  0.000000000E+00  0.00000E+00  9.000E+00
      21    -1     0     0   502   503  0.000000000E+00  0.000000000E+00 -7.582305829E+02  7.582305829E+02  0.000000000E+00  0.00000E+00  9.000E+00
      25     1     1     2     0     0 -6.730410933E+00  8.792144078E+00 -5.714070168E+02  5.850235713E+02  1.249959997E+02  0.00000E+00  9.000E+00
       5     1     1     2   501     0 -1.010616211E+00  2.320830662E-01 -2.450170326E+00  5.444358760E+00  4.750000000E+00  0.00000E+00  9.000E+00
      -5     1     1     2     0   503  4.395543600E+00 -7.339080129E+00 -1.759208302E+02  1.761927464E+02  4.750000000E+00  0.00000E+00  9.000E+00
      21     1     1     2   502   511  3.345483544E+00 -1.685147015E+00  3.121984803E+02  3.122209524E+02  0.000000000E+00  0.00000E+00  9.000E+00
#rwgt            1           9   2.2865794585948881E-003           4      131124           0
</event>
<event>
      6   9999  3.45752E-01  8.66775E+00 -1.00000E+00  1.93981E-01
      21    -1     0     0   512   502  0.000000000E+00  0.000000000E+00  1.003046180E+01  1.003046180E+01  0.000000000E+00  0.00000E+00  9.000E+00
      21    -1     0     0   502   503  0.000000000E+00  0.000000000E+00 -7.370537635E+02  7.370537635E+02  0.000000000E+00  0.00000E+00  9.000E+00
      25     1     1     2     0     0 -6.120223433E+00 -9.720965864E+00 -6.453343553E+02  6.574298531E+02  1.250025094E+02  0.00000E+00  9.000E+00
       5     1     1     2   501     0  8.731447374E-03 -1.565418167E-01 -3.315977055E+00  5.795065609E+00  4.750000000E+00  0.00000E+00  9.000E+00
      -5     1     1     2     0   503  1.127577848E+01  2.916179941E+00 -7.202646528E+01  7.311649258E+01  4.750000000E+00  0.00000E+00  9.000E+00
      21     1     1     2   512   501 -5.164286494E+00  6.961327740E+00 -6.346504136E+00  1.074281405E+01  3.153981341E-07  0.00000E+00  9.000E+00
#rwgt            1           9   1.7654959032885273E-006           4      136061           0
</event>
<event>
      6   9999  3.45752E-01  4.34047E+01 -1.00000E+00  1.38159E-01
      21    -1     0     0   501   511  0.000000000E+00  0.000000000E+00  2.594927806E+01  2.594927806E+01  0.000000000E+00  0.00000E+00  9.000E+00
      21    -1     0     0   502   503  0.000000000E+00  0.000000000E+00 -2.227802206E+03  2.227802206E+03  0.000000000E+00  0.00000E+00  9.000E+00
      25     1     1     2     0     0  5.207583983E+01  1.263346788E+01 -1.741438023E+03  1.746740289E+03  1.249950024E+02  0.00000E+00  9.000E+00
       5     1     1     2   501     0 -1.138262995E+01  1.581546305E+01  2.519956160E+00  2.021400047E+01  4.750000000E+00  0.00000E+00  9.000E+00
      -5     1     1     2     0   503 -5.338144054E+01  1.305983023E+01 -4.267146712E+02  4.302651630E+02  4.750000000E+00  0.00000E+00  9.000E+00
      21     1     1     2   502   511  1.268823066E+01 -4.150876116E+01 -3.622018927E+01  5.653203129E+01  1.507891493E-06  0.00000E+00  9.000E+00
#rwgt            1           9   3.0466545530607615E-003           4      138461           0
</event>
<event>
      6   9999  3.45752E-01  1.24558E+01 -1.00000E+00  1.77677E-01
      21    -1     0     0   501   502  0.000000000E+00  0.000000000E+00  3.992184120E+01  3.992184120E+01  0.000000000E+00  0.00000E+00  9.000E+00
      21    -1     0     0   502   512  0.000000000E+00  0.000000000E+00 -1.300914060E+03  1.300914060E+03  0.000000000E+00  0.00000E+00  9.000E+00
      25     1     1     2     0     0 -9.969055021E+00 -2.486116131E+01 -1.149919697E+03  1.157003567E+03  1.249979419E+02  0.00000E+00  9.000E+00
       5     1     1     2   501     0  3.422441463E+00  7.998930374E-01  3.498465883E+01  3.548016048E+01  4.750000000E+00  0.00000E+00  9.000E+00
      -5     1     1     2     0   503  1.851040747E+00  1.252444385E+01 -7.858923342E+01  7.974407912E+01  4.750000000E+00  0.00000E+00  9.000E+00
      21     1     1     2   503   512  4.695572811E+00  1.153682443E+01 -6.746794740E+01  6.860809463E+01  0.000000000E+00  0.00000E+00  9.000E+00
#rwgt            1           9   2.5246446018261639E-005           4      139624           0
</event>
<event>
      6   9999  3.45752E-01  6.90874E+00 -1.00000E+00  2.05868E-01
      21    -1     0     0   502   511  0.000000000E+00  0.000000000E+00  2.303044876E+01  2.303044876E+01  0.000000000E+00  0.00000E+00  9.000E+00
      21    -1     0     0   501   502  0.000000000E+00  0.000000000E+00 -1.009094457E+03  1.009094457E+03  0.000000000E+00  0.00000E+00  9.000E+00
      25     1     1     2     0     0  2.202344182E+01  7.549727547E+01 -8.186025086E+02  8.318174993E+02  1.250016581E+02  0.00000E+00  9.000E+00
       5     1     1     2   501     0 -5.552895895E+00  3.059688106E+00 -4.173653598E+01  4.248172878E+01  4.750000000E+00  0.00000E+00  9.000E+00
      -5     1     1     2     0   503 -1.673013860E+01 -8.546082143E+01 -1.220294508E+02  1.499906627E+02  4.750000000E+00  0.00000E+00  9.000E+00
      21     1     1     2   503   511  2.595926799E-01  6.903857849E+00 -3.695512613E+00  7.835014680E+00  2.346637211E-07  0.00000E+00  9.000E+00
#rwgt            1           9   3.5167693882948026                4      143133           0
</event>
<event>
      6   9999  3.45752E-01  9.41288E+00 -1.00000E+00  1.90005E-01
      21    -1     0     0   502   503  0.000000000E+00  0.000000000E+00  1.128268308E+01  1.128268308E+01  0.000000000E+00  0.00000E+00  9.000E+00
       2    -1     0     0   501     0  0.000000000E+00  0.000000000E+00 -1.681092032E+03  1.681092032E+03  0.000000000E+00  0.00000E+00  9.000E+00
      25     1     1     2     0     0 -9.232898574E+00  6.974548068E-01 -8.096937846E+02  8.193377207E+02  1.249981715E+02  0.00000E+00  9.000E+00
       5     1     1     2   501     0 -5.071945449E-02 -8.461174009E-01  8.648844762E-01  4.901939644E+00  4.750000000E+00  0.00000E+00  9.000E+00
      -5     1     1     2     0   503 -4.915154145E-02 -1.076815713E+00  1.881664912E+00  5.221600405E+00  4.750000000E+00  0.00000E+00  9.000E+00
       2     1     1     2   502     0  9.332769570E+00  1.225478307E+00 -8.628621140E+02  8.629134546E+02  1.525878906E-05  0.00000E+00  9.000E+00
#rwgt            1           9   1.2227522177402695E-005           4      147008           0
</event>
<event>
      6   9999  3.45752E-01  5.18297E+00 -1.00000E+00  2.23314E-01
      21    -1     0     0   501   502  0.000000000E+00  0.000000000E+00  2.962452363E+01  2.962452363E+01  0.000000000E+00  0.00000E+00  9.000E+00
      21    -1     0     0   502   511  0.000000000E+00  0.000000000E+00 -2.806078889E+02  2.806078889E+02  0.000000000E+00  0.00000E+00  9.000E+00
      25     1     1     2     0     0  2.291840248E+00  9.345805630E+00 -1.664064469E+02  2.083454092E+02  1.249964293E+02  0.00000E+00  9.000E+00
       5     1     1     2   501     0  3.712720305E-01  1.544782278E-01  4.140772974E-01  4.784941635E+00  4.750000000E+00  0.00000E+00  9.000E+00
      -5     1     1     2     0   503  1.989652429E+00 -1.178390570E+01 -9.432141436E-01  1.289462304E+01  4.750000000E+00  0.00000E+00  9.000E+00
      21     1     1     2   503   511 -4.652764707E+00  2.283621842E+00 -8.404778145E+01  8.420743860E+01  0.000000000E+00  0.00000E+00  9.000E+00
#rwgt            1           9   3.4257450207632947E-003           4      149468           0
</event>
<event>
      6   9999  3.45752E-01  1.34229E+01 -1.00000E+00  1.74661E-01
      21    -1     0     0   512   502  0.000000000E+00  0.000000000E+00  6.329362842E+01  6.329362842E+01  0.000000000E+00  0.00000E+00  9.000E+00
      21    -1     0     0   502   503  0.000000000E+00  0.000000000E+00 -5.186039851E+02  5.186039851E+02  0.000000000E+00  0.00000E+00  9.000E+00
      25     1     1     2     0     0  1.139275415E+02 -1.721068870E+01 -2.462529770E+02  2.992297851E+02  1.249889719E+02  0.00000E+00  9.000E+00
       5     1     1     2   501     0  6.069474304E-01  7.864436229E-01  1.671486166E+01  1.740505613E+01  4.750000000E+00  0.00000E+00  9.000E+00
      -5     1     1     2     0   503 -1.079330080E+02  4.736850701E+00 -2.273387372E+02  2.517487556E+02  4.750000000E+00  0.00000E+00  9.000E+00
      21     1     1     2   512   501 -6.601480904E+00  1.168739438E+01  1.566495923E+00  1.351401668E+01  2.289159819E-07  0.00000E+00  9.000E+00
#rwgt            1           9   1.6601866760407519E-004           4      153193           0
</event>
<event>
      6   9999  3.45752E-01  6.66190E+00 -1.00000E+00  2.07917E-01
      21    -1     0     0   511   502  0.000000000E+00  0.000000000E+00  1.061813403E+01  1.061813403E+01  0.000000000E+00  0.00000E+00  9.000E+00
      21    -1     0     0   502   503  0.000000000E+00  0.000000000E+00 -7.494082016E+02  7.494082016E+02  0.000000000E+00  0.00000E+00  9.000E+00
      25     1     1     2     0     0  6.631198405E+00  1.627317919E+01 -5.351257749E+02  5.498112780E+02  1.249962287E+02  0.00000E+00  9.000E+00
       5     1     1     2   501     0 -1.576665584E-01  8.982979192E-01 -4.273592623E+00  6.454292510E+00  4.750000000E+00  0.00000E+00  9.000E+00
      -5     1     1     2     0   503 -6.192088557E+00 -1.051552054E+01 -1.957140375E+02  1.961516381E+02  4.750000000E+00  0.00000E+00  9.000E+00
      21     1     1     2   511   501 -2.814432904E-01 -6.655956572E+00 -3.676662480E+00  7.609127099E+00  4.214684851E-08  0.00000E+00  9.000E+00
#rwgt            1           9   1.4401223088642162E-003           4      155667           0
</event>
<event>
      6   9999  3.45752E-01  1.06087E+01 -1.00000E+00  1.84531E-01
      21    -1     0     0   502   512  0.000000000E+00  0.000000000E+00  7.904297583E+00  7.904297583E+00  0.000000000E+00  0.00000E+00  9.000E+00
      21    -1     0     0   501   502  0.000000000E+00  0.000000000E+00 -7.265654976E+02  7.265654976E+02  0.000000000E+00  0.00000E+00  9.000E+00
      25     1     1     2     0     0 -1.269100045E+01 -2.402167200E+00 -6.606737334E+02  6.725188580E+02  1.250000014E+02  0.00000E+00  9.000E+00
       5     1     1     2   501     0 -1.917552125E-01 -3.925787711E-02 -2.105545060E+01  2.158547686E+01  4.750000000E+00  0.00000E+00  9.000E+00
      -5     1     1     2     0   503  2.293058569E+00  1.807291130E+00 -1.060430357E+01  1.198074176E+01  4.750000000E+00  0.00000E+00  9.000E+00
      21     1     1     2   503   512  1.058969710E+01  6.341339469E-01 -2.632771245E+01  2.838471866E+01  6.743495762E-07  0.00000E+00  9.000E+00
#rwgt            1           9   2.8089616121012169E-003           4      158668           0
</event>
<event>
      6   9999  3.45752E-01  1.01089E+01 -1.00000E+00  1.86700E-01
      21    -1     0     0   501   502  0.000000000E+00  0.000000000E+00  8.334963071E+00  8.334963071E+00  0.000000000E+00  0.00000E+00  9.000E+00
       2    -1     0     0   502     0  0.000000000E+00  0.000000000E+00 -1.068899432E+03  1.068899432E+03  0.000000000E+00  0.00000E+00  9.000E+00
      25     1     1     2     0     0  7.129042626E+00 -1.517392687E+00 -7.215315018E+02  7.323151946E+02  1.249988417E+02  0.00000E+00  9.000E+00
       5     1     1     2   501     0  1.456727671E+00 -1.009066917E-02 -8.863516335E-01  5.046808551E+00  4.750000000E+00  0.00000E+00  9.000E+00
      -5     1     1     2     0   503  5.711007050E-01 -2.755108450E+00 -8.917643262E+00  1.048826201E+01  4.750000000E+00  0.00000E+00  9.000E+00
       2     1     1     2   503     0 -9.156871002E+00  4.282591807E+00 -3.292289722E+02  3.293841298E+02  3.814697266E-06  0.00000E+00  9.000E+00
#rwgt            1           9   4.7896044897033977E-005           4      160555           0
</event>
<event>
      6   9999  3.45752E-01  5.97890E+00 -1.00000E+00  2.14271E-01
       2    -1     0     0   501     0  0.000000000E+00  0.000000000E+00  2.265154057E+02  2.265154057E+02  0.000000000E+00  0.00000E+00  9.000E+00
      21    -1     0     0   502   503  0.000000000E+00  0.000000000E+00 -6.847936098E+02  6.847936098E+02  0.000000000E+00  0.00000E+00  9.000E+00
      25     1     1     2     0     0  2.240532051E+00  7.991515879E+00 -6.107450609E+02  6.234639686E+02  1.250156245E+02  0.00000E+00  9.000E+00
       5     1     1     2   501     0  2.319650579E-01  6.253612946E-02 -4.308230720E+00  6.417247891E+00  4.750000000E+00  0.00000E+00  9.000E+00
      -5     1     1     2     0   503 -8.580351260E-01 -2.297254918E+00 -6.217084802E+01  6.240024397E+01  4.750000000E+00  0.00000E+00  9.000E+00
       2     1     1     2   502     0 -1.614461983E+00 -5.756797090E+00  2.189459356E+02  2.190275551E+02  4.672030912E-06  0.00000E+00  9.000E+00
#rwgt            1           9   2.0194408281079979E-003           4      162880           0
</event>
<event>
      6   9999  3.45752E-01  6.77148E+00 -1.00000E+00  2.06993E-01
      21    -1     0     0   511   502  0.000000000E+00  0.000000000E+00  8.076284101E+00  8.076284101E+00  0.000000000E+00  0.00000E+00  9.000E+00
      21    -1     0     0   502   503  0.000000000E+00  0.000000000E+00 -1.733961901E+03  1.733961901E+03  0.000000000E+00  0.00000E+00  9.000E+00
      25     1     1     2     0     0 -6.734411602E+00 -3.922040521E+00 -1.643621918E+03  1.648386849E+03  1.250018409E+02  0.00000E+00  9.000E+00
       5     1     1     2   501     0  8.973053575E-01  1.657498625E+00  3.794549100E+00  6.365026431E+00  4.750000000E+00  0.00000E+00  9.000E+00
      -5     1     1     2     0   503 -5.034398687E-01  4.641596805E+00 -5.977005873E+01  6.014000577E+01  4.750000000E+00  0.00000E+00  9.000E+00
      21     1     1     2   511   501  6.340546113E+00 -2.377054910E+00 -2.628818872E+01  2.714630327E+01  0.000000000E+00  0.00000E+00  9.000E+00
#rwgt            1           9   1.5716510031165243E-003           4      166116           0
</event>
<event>
      6   9999  3.45752E-01  1.04185E+01 -1.00000E+00  1.85338E-01
      21    -1     0     0   501   502  0.000000000E+00  0.000000000E+00  9.683762447E+00  9.683762447E+00  0.000000000E+00  0.00000E+00  9.000E+00
      21    -1     0     0   512   503  0.000000000E+00  0.000000000E+00 -1.021674343E+03  1.021674343E+03  0.000000000E+00  0.00000E+00  9.000E+00
      25     1     1     2     0     0 -3.282775391E+00  9.385684010E+00 -5.505403584E+02  5.646398702E+02  1.249985164E+02  0.00000E+00  9.000E+00
       5     1     1     2   501     0  4.716457098E-01 -9.455088771E-01 -1.112051168E+00  4.991552315E+00  4.750000000E+00  0.00000E+00  9.000E+00
      -5     1     1     2     0   503 -7.661114055E-01 -1.822524717E+01 -1.454657387E+02  1.466819355E+02  4.750000000E+00  0.00000E+00  9.000E+00
      21     1     1     2   512   502  3.577241087E+00  9.785072039E+00 -3.148724324E+02  3.150447476E+02  5.394796609E-06  0.00000E+00  9.000E+00
#rwgt            1           9   3.4415480489173377E-004           4      169453           0
</event>
<event>
      6   9999  3.45752E-01  4.15619E+00 -1.00000E+00  2.44456E-01
      21    -1     0     0   501   502  0.000000000E+00  0.000000000E+00  6.098747282E+00  6.098747282E+00  0.000000000E+00  0.00000E+00  9.000E+00
      21    -1     0     0   511   503  0.000000000E+00  0.000000000E+00 -1.082685981E+03  1.082685981E+03  0.000000000E+00  0.00000E+00  9.000E+00
      25     1     1     2     0     0  7.283665247E-01  3.479821487E+00 -7.234207934E+02  7.341493460E+02  1.249999132E+02  0.00000E+00  9.000E+00
       5     1     1     2   501     0 -3.664855993E-01  8.315887812E-02 -9.321012945E+00  1.046828589E+01  4.750000000E+00  0.00000E+00  9.000E+00
      -5     1     1     2     0   503 -3.231604398E+00 -5.565483205E-01 -5.698708674E+01  5.727864845E+01  4.750000000E+00  0.00000E+00  9.000E+00
      21     1     1     2   511   502  2.869723472E+00 -3.006432044E+00 -2.868583408E+02  2.868884481E+02  3.814697266E-06  0.00000E+00  9.000E+00
#rwgt            1           9   4.9334050482850384E-003           4      171624           0
</event>
<event>
      6   9999 -3.45752E-01  1.96890E+01 -1.00000E+00  1.60732E-01
      21    -1     0     0   501   502  0.000000000E+00  0.000000000E+00  4.442902226E+01  4.442902226E+01  0.000000000E+00  0.00000E+00  9.000E+00
      21    -1     0     0   512   503  0.000000000E+00  0.000000000E+00 -6.247041834E+02  6.247041834E+02  0.000000000E+00  0.00000E+00  9.000E+00
      25     1     1     2     0     0  4.233854400E+01 -6.046642465E+01 -3.302197517E+02  3.607170852E+02  1.249919611E+02  0.00000E+00  9.000E+00
       5     1     1     2   501     0 -1.894140957E+00  5.749830694E-01  1.775890216E+01  1.848944244E+01  4.750000000E+00  0.00000E+00  9.000E+00
      -5     1     1     2     0   503 -5.721573250E+01  4.957742196E+01 -1.284323556E+02  1.491609644E+02  4.750000000E+00  0.00000E+00  9.000E+00
      21     1     1     2   512   502  1.677132946E+01  1.031401962E+01 -1.393819560E+02  1.407657136E+02  2.697398305E-06  0.00000E+00  9.000E+00
#rwgt            1           9  -1.7845032694095871E-004           4      175539           0
</event>
<event>
      6   9999  3.45752E-01  1.61798E+01 -1.00000E+00  1.67570E-01
      21    -1     0     0   502   503  0.000000000E+00  0.000000000E+00  9.657616530E+00  9.657616530E+00  0.000000000E+00  0.00000E+00  9.000E+00
       1    -1     0     0   501     0  0.000000000E+00  0.000000000E+00 -2.281853998E+03  2.281853998E+03  0.000000000E+00  0.00000E+00  9.000E+00
      25     1     1     2     0     0  8.254031306E+00 -4.649135596E-01 -5.427896720E+02  5.570589867E+02  1.250029660E+02  0.00000E+00  9.000E+00
       5     1     1     2   501     0  1.218546082E+00 -3.487571860E+00 -1.218785676E+01  1.359243777E+01  4.750000000E+00  0.00000E+00  9.000E+00
      -5     1     1     2     0   503 -6.220772229E+00 -1.189718204E+01 -2.667040302E+01  3.023431568E+01  4.750000000E+00  0.00000E+00  9.000E+00
       1     1     1     2   502     0 -3.251805158E+00  1.584966746E+01 -1.690548449E+03  1.690625874E+03  2.157918644E-05  0.00000E+00  9.000E+00
#rwgt            1           9   15.907624761174230                4      177913           0
</event>
<event>
      6   9999  3.45752E-01  2.66747E+00 -1.00000E+00  2.90974E-01
      21    -1     0     0   501   511  0.000000000E+00  0.000000000E+00  1.847149903E+01  1.847149903E+01  0.000000000E+00  0.00000E+00  9.000E+00
      21    -1     0     0   502   503  0.000000000E+00  0.000000000E+00 -9.191545278E+02  9.191545278E+02  0.000000000E+00  0.00000E+00  9.000E+00
      25     1     1     2     0     0 -1.978784735E+01 -4.614749047E+00 -7.273882191E+02  7.383298466E+02  1.249979447E+02  0.00000E+00  9.000E+00
       5     1     1     2   501     0  4.286695228E+00  1.573314934E-01  9.119846683E+00  1.114157137E+01  4.750000000E+00  0.00000E+00  9.000E+00
      -5     1     1     2     0   503  1.665615239E+01  6.861866022E+00 -1.840732012E+02  1.850135630E+02  4.750000000E+00  0.00000E+00  9.000E+00
      21     1     1     2   502   511 -1.155000270E+00 -2.404448469E+00  1.658544846E+00  3.141045856E+00  1.763129170E-07  0.00000E+00  9.000E+00
#rwgt            1           9   4.5569074343210031E-005           4      179371           0
</event>
<event>
      6   9999  3.45752E-01  2.29461E+01 -1.00000E+00  1.55785E-01
       1    -1     0     0   501     0  0.000000000E+00  0.000000000E+00  1.021642357E+03  1.021642357E+03  0.000000000E+00  0.00000E+00  9.000E+00
      21    -1     0     0   502   503  0.000000000E+00  0.000000000E+00 -9.077765421E+02  9.077765421E+02  0.000000000E+00  0.00000E+00  9.000E+00
      25     1     1     2     0     0  3.401317175E+00 -4.263647130E+00 -8.821876101E+02  8.910166035E+02  1.250034424E+02  0.00000E+00  9.000E+00
       5     1     1     2   501     0 -1.664232220E+00  2.186957766E+01  1.527591231E+02  1.543987056E+02  4.750000000E+00  0.00000E+00  9.000E+00
      -5     1     1     2     0   503  1.691068520E+00  5.082652519E+00 -1.956783478E+01  2.083640390E+01  4.750000000E+00  0.00000E+00  9.000E+00
       1     1     1     2   502     0 -3.428153475E+00 -2.268858305E+01  8.628621373E+02  8.631671866E+02  0.000000000E+00  0.00000E+00  9.000E+00
#rwgt            1           9   3.8149494702365038E-004           4      186385           0
</event>
<event>
      6   9999  3.45752E-01  1.34043E+01 -1.00000E+00  1.74716E-01
      21    -1     0     0   511   502  0.000000000E+00  0.000000000E+00  3.732801502E+02  3.732801502E+02  0.000000000E+00  0.00000E+00  9.000E+00
      21    -1     0     0   502   503  0.000000000E+00  0.000000000E+00 -1.911003658E+03  1.911003658E+03  0.000000000E+00  0.00000E+00  9.000E+00
      25     1     1     2     0     0  2.706500813E+01  6.147772545E+01 -1.947358792E+02  2.409528539E+02  1.249967590E+02  0.00000E+00  9.000E+00
       5     1     1     2   501     0 -1.301816505E+01  7.081413941E+00  6.085930198E+01  6.281748309E+01  4.750000000E+00  0.00000E+00  9.000E+00
      -5     1     1     2     0   503 -1.889729762E+01 -5.606320618E+01 -1.691503637E+03  1.692544625E+03  4.750000000E+00  0.00000E+00  9.000E+00
      21     1     1     2   511   501  4.850454540E+00 -1.249593321E+01  2.876567068E+02  2.879688459E+02  6.607249480E-06  0.00000E+00  9.000E+00
#rwgt            1           9   1.0099483869444200E-003           4      190047           0
</event>
<event>
      6   9999  3.45752E-01  5.65009E+00 -1.00000E+00  2.17759E-01
      21    -1     0     0   512   502  0.000000000E+00  0.000000000E+00  2.682074175E+02  2.682074175E+02  0.000000000E+00  0.00000E+00  9.000E+00
      21    -1     0     0   502   503  0.000000000E+00  0.000000000E+00 -2.211881278E+03  2.211881278E+03  0.000000000E+00  0.00000E+00  9.000E+00
      25     1     1     2     0     0 -7.662768306E+00 -5.110155102E+00 -1.995261717E+03  1.999191742E+03  1.249538682E+02  0.00000E+00  9.000E+00
       5     1     1     2   501     0  1.800228923E+00  1.379831573E+00  7.697205205E+00  9.324925057E+00  4.750000000E+00  0.00000E+00  9.000E+00
      -5     1     1     2     0   503  2.856737870E+00 -1.053892596E+00 -2.137724962E+02  2.138469412E+02  4.750000000E+00  0.00000E+00  9.000E+00
      21     1     1     2   512   501  3.005801513E+00  4.784216125E+00  2.576631471E+02  2.577250879E+02  5.394796609E-06  0.00000E+00  9.000E+00
#rwgt            1           9   8.2253824284935817                4      193759           0
</event>
<event>
      6   9999 -3.45752E-01  4.18712E+01 -1.00000E+00  1.39044E-01
      21    -1     0     0   501   502  0.000000000E+00  0.000000000E+00  4.825572216E+01  4.825572216E+01  0.000000000E+00  0.00000E+00  9.000E+00
      21    -1     0     0   511   503  0.000000000E+00  0.000000000E+00 -1.362394039E+03  1.362394039E+03  0.000000000E+00  0.00000E+00  9.000E+00
      25     1     1     2     0     0 -4.405518709E+01 -3.076994981E+01 -3.336696110E+02  3.603441272E+02  1.249993257E+02  0.00000E+00  9.000E+00
       5     1     1     2   501     0  5.987826260E+00 -2.059488202E+01  2.943284749E+01  3.672680547E+01  4.750000000E+00  0.00000E+00  9.000E+00
      -5     1     1     2     0   503  4.257183511E+01  9.736586728E+00 -5.692249399E+02  5.709174695E+02  4.750000000E+00  0.00000E+00  9.000E+00
      21     1     1     2   511   502 -4.504474279E+00  4.162824510E+01 -4.406766129E+02  4.426613585E+02  5.394796609E-06  0.00000E+00  9.000E+00
#rwgt            1           9  -8.2570708595111977E-004           4      198899           0
</event>
<event>
      6   9999  3.45752E-01  4.71771E+00 -1.00000E+00  2.33893E-01
      21    -1     0     0   501   512  0.000000000E+00  0.000000000E+00  9.957893032E+02  9.957893032E+02  0.000000000E+00  0.00000E+00  9.000E+00
      21    -1     0     0   502   503  0.000000000E+00  0.000000000E+00 -3.644029029E+02  3.644029029E+02  0.000000000E+00  0.00000E+00  9.000E+00
      25     1     1     2     0     0 -2.340983865E+00 -6.840702239E+00 -1.463435020E+02  1.925980705E+02  1.250012831E+02  0.00000E+00  9.000E+00
       5     1     1     2   501     0  3.027607168E+00 -1.238039683E+00  1.991030232E+01  2.072876711E+01  4.750000000E+00  0.00000E+00  9.000E+00
      -5     1     1     2     0   503  3.799609919E+00  6.619108544E+00 -1.944131784E+02  1.946209035E+02  4.750000000E+00  0.00000E+00  9.000E+00
      21     1     1     2   502   512 -4.486233222E+00  1.459633378E+00  9.522327784E+02  9.522444650E+02  0.000000000E+00  0.00000E+00  9.000E+00
#rwgt            1           9  0.26643381846080832                4      200374           0
</event>
<event>
      6   9999  3.45752E-01  7.66676E+00 -1.00000E+00  2.00228E-01
      21    -1     0     0   501   502  0.000000000E+00  0.000000000E+00  1.406361469E+01  1.406361469E+01  0.000000000E+00  0.00000E+00  9.000E+00
      21    -1     0     0   502   511  0.000000000E+00  0.000000000E+00 -8.264705988E+02  8.264705988E+02  0.000000000E+00  0.00000E+00  9.000E+00
      25     1     1     2     0     0  5.951091650E+00 -1.034876726E+01 -4.268281958E+02  4.449135283E+02  1.249929056E+02  0.00000E+00  9.000E+00
       5     1     1     2   501     0  7.934722244E-02 -2.521677491E-01  3.277643869E+00  5.777138902E+00  4.750000000E+00  0.00000E+00  9.000E+00
      -5     1     1     2     0   503 -8.405112530E+00  3.311202386E+00 -3.542942690E+02  3.544412526E+02  4.750000000E+00  0.00000E+00  9.000E+00
      21     1     1     2   503   511  2.374673658E+00  7.289732628E+00 -3.456216316E+01  3.540229370E+01  4.768371582E-07  0.00000E+00  9.000E+00
#rwgt            1           9   5.7812485206649606E-005           4      205897           0
</event>
<event>
      6   9999  3.45752E-01  8.88125E+01 -1.00000E+00  1.22666E-01
      21    -1     0     0   501   502  0.000000000E+00  0.000000000E+00  1.201467439E+02  1.201467439E+02  0.000000000E+00  0.00000E+00  9.000E+00
      21    -1     0     0   502   512  0.000000000E+00  0.000000000E+00 -1.910170293E+02  1.910170293E+02  0.000000000E+00  0.00000E+00  9.000E+00
      25     1     1     2     0     0  4.522396729E+01  4.925419239E+01  3.003839903E+01  1.449101450E+02  1.250018480E+02  0.00000E+00  9.000E+00
       5     1     1     2   501     0  1.976013003E+00  4.501888661E+00 -7.923556129E+00  1.046503085E+01  4.750000000E+00  0.00000E+00  9.000E+00
      -5     1     1     2     0   503 -9.658173579E+00  2.673160775E+01 -4.860364815E+01  5.650430323E+01  4.750000000E+00  0.00000E+00  9.000E+00
      21     1     1     2   503   512 -3.754180672E+01 -8.048768880E+01 -4.438148015E+01  9.928429423E+01  2.078484985E-06  0.00000E+00  9.000E+00
#rwgt            1           9  0.22326298085862803                4      208769           0
</event>
<event>
      6   9999  3.45752E-01  5.78728E+00 -1.00000E+00  2.16265E-01
      21    -1     0     0   501   511  0.000000000E+00  0.000000000E+00  2.540686643E+02  2.540686643E+02  0.000000000E+00  0.00000E+00  9.000E+00
      21    -1     0     0   502   503  0.000000000E+00  0.000000000E+00 -8.096583300E+02  8.096583300E+02  0.000000000E+00  0.00000E+00  9.000E+00
      25     1     1     2     0     0 -1.124369831E+00 -6.314079491E+00 -4.201221325E+02  4.383717296E+02  1.250041411E+02  0.00000E+00  9.000E+00
       5     1     1     2   501     0 -2.862177308E-01 -5.814831035E-01 -1.583574294E+00  5.048787056E+00  4.750000000E+00  0.00000E+00  9.000E+00
      -5     1     1     2     0   503 -4.254425664E+00  5.712227623E+00 -3.770121894E+02  3.771093782E+02  4.750000000E+00  0.00000E+00  9.000E+00
      21     1     1     2   502   511  5.665013226E+00  1.183334971E+00  2.431282305E+02  2.431970994E+02  2.697398305E-06  0.00000E+00  9.000E+00
#rwgt            1           9   3.5367203708013000E-003           4      209309           0
</event>
<event>
      6   9999  3.45752E-01  4.75935E+00 -1.00000E+00  2.33196E-01
      21    -1     0     0   501   502  0.000000000E+00  0.000000000E+00  2.720717413E+01  2.720717413E+01  0.000000000E+00  0.00000E+00  9.000E+00
      21    -1     0     0   512   503  0.000000000E+00  0.000000000E+00 -3.381043308E+03  3.381043308E+03  0.000000000E+00  0.00000E+00  9.000E+00
      25     1     1     2     0     0 -4.953574039E-03  9.750886641E+00 -2.237284635E+03  2.240795367E+03  1.250050327E+02  0.00000E+00  9.000E+00
       5     1     1     2   501     0 -5.238333324E+00 -1.038545539E+00  2.477588650E+01  2.578615452E+01  4.750000000E+00  0.00000E+00  9.000E+00
      -5     1     1     2     0   503  4.928589137E-01 -9.003648796E+00 -1.571833400E+02  1.575134073E+02  4.750000000E+00  0.00000E+00  9.000E+00
      21     1     1     2   512   502  4.750427984E+00  2.913076943E-01 -9.841440452E+02  9.841555533E+02  1.868812365E-05  0.00000E+00  9.000E+00
#rwgt            1           9   4.0757025722387187E-004           4      212893           0
</event>
<event>
      6   9999 -3.45752E-01  2.60855E+01 -1.00000E+00  1.51876E-01
       1    -1     0     0   501     0  0.000000000E+00  0.000000000E+00  1.258567554E+03  1.258567554E+03  0.000000000E+00  0.00000E+00  9.000E+00
      21    -1     0     0   502   503  0.000000000E+00  0.000000000E+00 -9.834255582E+02  9.834255582E+02  0.000000000E+00  0.00000E+00  9.000E+00
      25     1     1     2     0     0 -1.768289384E+00  2.226916914E+01 -9.386957826E+02  9.472480974E+02  1.250205711E+02  0.00000E+00  9.000E+00
       5     1     1     2   501     0 -2.860641161E+00  7.104322554E+00  1.959655947E+01  2.156947634E+01  4.750000000E+00  0.00000E+00  9.000E+00
      -5     1     1     2     0   503  4.655852123E-01 -3.622398955E+00 -3.910103841E+01  3.955745503E+01  4.750000000E+00  0.00000E+00  9.000E+00
       1     1     1     2   502     0  4.163345333E+00 -2.575109273E+01  1.233342257E+03  1.233618083E+03  2.642899792E-05  0.00000E+00  9.000E+00
#rwgt            1           9  -3.8171197553454916E-004           4      219016           0
</event>
<event>
      6   9999  3.45752E-01  1.81084E+01 -1.00000E+00  1.63575E-01
      21    -1     0     0   501   502  0.000000000E+00  0.000000000E+00  3.075199428E+01  3.075199428E+01  0.000000000E+00  0.00000E+00  9.000E+00
      21    -1     0     0   502   511  0.000000000E+00  0.000000000E+00 -1.074398059E+03  1.074398059E+03  0.000000000E+00  0.00000E+00  9.000E+00
      25     1     1     2     0     0  7.103366026E+01  1.446796877E+01 -2.465405326E+02  2.857668986E+02  1.250015324E+02  0.00000E+00  9.000E+00
       5     1     1     2   501     0  3.525174482E+00  1.294685365E+00  7.073446209E+00  9.311240873E+00  4.750000000E+00  0.00000E+00  9.000E+00
      -5     1     1     2     0   503 -6.602714005E+01  2.099999095E-01 -7.506425811E+02  7.535558867E+02  4.750000000E+00  0.00000E+00  9.000E+00
      21     1     1     2   503   511 -8.531694690E+00 -1.597265404E+01 -5.353639734E+01  5.651602721E+01  6.743495762E-07  0.00000E+00  9.000E+00
#rwgt            1           9   4.4529821207132834E-003           4      220682           0
</event>
<event>
      6   9999  3.45752E-01  2.17622E+01 -1.00000E+00  1.57461E-01
      21    -1     0     0   501   502  0.000000000E+00  0.000000000E+00  2.709364955E+03  2.709364955E+03  0.000000000E+00  0.00000E+00  9.000E+00
      21    -1     0     0   502   512  0.000000000E+00  0.000000000E+00 -3.412977692E+02  3.412977692E+02  0.000000000E+00  0.00000E+00  9.000E+00
      25     1     1     2     0     0 -1.961661085E+01  3.760323355E+00  7.039119170E+01  1.448316647E+02  1.249893587E+02  0.00000E+00  9.000E+00
       5     1     1     2   501     0  9.716192804E+00  2.704719535E+00  2.597867830E+03  2.597891750E+03  4.750000000E+00  0.00000E+00  9.000E+00
      -5     1     1     2     0   503 -5.434600898E+00  8.976149679E+00 -6.081796646E+00  1.302524090E+01  4.750000000E+00  0.00000E+00  9.000E+00
      21     1     1     2   503   512  1.533501894E+01 -1.544119257E+01 -2.941100388E+02  2.949140691E+02  5.394796609E-06  0.00000E+00  9.000E+00
#rwgt            1           9   1.9157420023347055E-002           4      223057           0
</event>
<event>
      6   9999  3.45752E-01  4.78544E+00 -1.00000E+00  2.32764E-01
      21    -1     0     0   501   502  0.000000000E+00  0.000000000E+00  9.378892903E+00  9.378892903E+00  0.000000000E+00  0.00000E+00  9.000E+00
      21    -1     0     0   511   503  0.000000000E+00  0.000000000E+00 -8.091002022E+02  8.091002022E+02  0.000000000E+00  0.00000E+00  9.000E+00
      25     1     1     2     0     0 -9.354578408E+00  3.903788713E+00 -5.624957302E+02  5.763063050E+02  1.249990520E+02  0.00000E+00  9.000E+00
       5     1     1     2   501     0  3.363086360E-01  1.071539075E+00 -4.869138335E-01  4.905189555E+00  4.750000000E+00  0.00000E+00  9.000E+00
      -5     1     1     2     0   503  9.386716805E+00 -2.040881900E-01 -1.315499781E+02  1.319701154E+02  4.750000000E+00  0.00000E+00  9.000E+00
      21     1     1     2   511   502 -3.684470324E-01 -4.771239599E+00 -1.051886871E+02  1.052974851E+02  1.348699152E-06  0.00000E+00  9.000E+00
#rwgt            1           9   3.3360313119664082E-003           4      226570           0
</event>
<event>
      6   9999  3.45752E-01  6.00847E+00 -1.00000E+00  2.13973E-01
      21    -1     0     0   501   512  0.000000000E+00  0.000000000E+00  5.070469468E+01  5.070469468E+01  0.000000000E+00  0.00000E+00  9.000E+00
      21    -1     0     0   502   503  0.000000000E+00  0.000000000E+00 -4.094864161E+02  4.094864161E+02  0.000000000E+00  0.00000E+00  9.000E+00
      25     1     1     2     0     0  4.673703367E+00  2.551637400E-01 -3.908398145E+02  4.103692437E+02  1.250009878E+02  0.00000E+00  9.000E+00
       5     1     1     2   501     0  2.619421659E-01  1.228160477E+00  3.442487855E+00  5.999184485E+00  4.750000000E+00  0.00000E+00  9.000E+00
      -5     1     1     2     0   503  9.843331182E-01 -4.559072677E-01 -6.541061584E+00  8.156270580E+00  4.750000000E+00  0.00000E+00  9.000E+00
      21     1     1     2   502   512 -5.919978651E+00 -1.027416950E+00  3.515666677E+01  3.566641208E+01  1.261592536E-06  0.00000E+00  9.000E+00
#rwgt            1           9  0.15416181734006160                4      230775           0
</event>
<event>
      6   9999  3.45752E-01  3.33941E+00 -1.00000E+00  2.65278E-01
      21    -1     0     0   501   511  0.000000000E+00  0.000000000E+00  3.161781039E+01  3.161781039E+01  0.000000000E+00  0.00000E+00  9.000E+00
      21    -1     0     0   502   503  0.000000000E+00  0.000000000E+00 -8.211389487E+02  8.211389487E+02  0.000000000E+00  0.00000E+00  9.000E+00
      25     1     1     2     0     0 -4.750752901E+00  3.314665663E+00 -7.651071033E+02  7.752727340E+02  1.250015040E+02  0.00000E+00  9.000E+00
       5     1     1     2   501     0 -9.712175928E-01 -1.017920427E+00  4.007855658E+00  6.372192133E+00  4.750000000E+00  0.00000E+00  9.000E+00
      -5     1     1     2     0   503  2.644227632E+00 -1.000928903E+00 -4.948139710E+01  4.978920523E+01  4.750000000E+00  0.00000E+00  9.000E+00
      21     1     1     2   502   511  3.077742862E+00 -1.295816333E+00  2.105950641E+01  2.132262769E+01  4.129530925E-07  0.00000E+00  9.000E+00
#rwgt            1           9   1.3212386399507312E-006           4      234010           0
</event>
<event>
      6   9999  3.45752E-01  4.58473E+01 -1.00000E+00  1.36834E-01
      21    -1     0     0   502   503  0.000000000E+00  0.000000000E+00  6.931654066E+01  6.931654066E+01  0.000000000E+00  0.00000E+00  9.000E+00
      21    -1     0     0   512   502  0.000000000E+00  0.000000000E+00 -1.740198344E+03  1.740198344E+03  0.000000000E+00  0.00000E+00  9.000E+00
      25     1     1     2     0     0 -5.035764592E+01  1.175059775E+02 -2.053131002E+02  2.722538075E+02  1.250004772E+02  0.00000E+00  9.000E+00
       5     1     1     2   501     0  7.239075072E+01 -7.162501532E+01 -1.076615375E+03  1.081431362E+03  4.750000000E+00  0.00000E+00  9.000E+00
      -5     1     1     2     0   503 -5.392060677E+01 -1.293910932E+01  8.009736125E+00  5.622784681E+01  4.750000000E+00  0.00000E+00  9.000E+00
      21     1     1     2   512   501  3.188750196E+01 -3.294185282E+01 -3.969630645E+02  3.996018681E+02  0.000000000E+00  0.00000E+00  9.000E+00
#rwgt            1           9   3418.0695282737597                4      239367           0
</event>
<event>
      6   9999  3.45752E-01  3.64141E+02 -1.00000E+00  1.00590E-01
      21    -1     0     0   502   503  0.000000000E+00  0.000000000E+00  2.907247342E+03  2.907247342E+03  0.000000000E+00  0.00000E+00  9.000E+00
      21    -1     0     0   501   511  0.000000000E+00  0.000000000E+00 -3.915369000E+02  3.915369000E+02  0.000000000E+00  0.00000E+00  9.000E+00
      25     1     1     2     0     0 -2.128810055E+02  2.822637791E+02  6.972849119E+02  7.917115586E+02  1.249391060E+02  0.00000E+00  9.000E+00
       5     1     1     2   501     0  4.166784397E+01 -3.947513691E+01  2.298378282E+01  6.201058319E+01  4.750000000E+00  0.00000E+00  9.000E+00
      -5     1     1     2     0   503 -3.227500143E+01  5.918962405E+01  2.017449650E+03  2.018581368E+03  4.750000000E+00  0.00000E+00  9.000E+00
      21     1     1     2   502   511  2.034881630E+02 -3.019782662E+02 -2.220079028E+02  4.264807318E+02  8.529922400E-06  0.00000E+00  9.000E+00
#rwgt            1           9   1384.5982207572915                4      240771           0
</event>
<event>
      6   9999  3.45752E-01  3.96192E+00 -1.00000E+00  2.48713E-01
      21    -1     0     0   501   502  0.000000000E+00  0.000000000E+00  1.681934620E+01  1.681934620E+01  0.000000000E+00  0.00000E+00  9.000E+00
      21    -1     0     0   512   503  0.000000000E+00  0.000000000E+00 -9.513180726E+02  9.513180726E+02  0.000000000E+00  0.00000E+00  9.000E+00
      25     1     1     2     0     0 -6.418193846E+00  6.220927450E+00 -7.635779397E+02  7.737937624E+02  1.250024942E+02  0.00000E+00  9.000E+00
       5     1     1     2   501     0  3.687360376E+00  5.213121447E-02  1.054374913E+01  1.213805956E+01  4.750000000E+00  0.00000E+00  9.000E+00
      -5     1     1     2     0   503  1.193627626E+00 -9.924605992E+00 -1.597267777E+02  1.601097391E+02  4.750000000E+00  0.00000E+00  9.000E+00
      21     1     1     2   512   502  1.537205843E+00  3.651547327E+00 -2.173775819E+01  2.209585778E+01  2.384185791E-07  0.00000E+00  9.000E+00
#rwgt            1           9   2.0357445264047418E-003           4      241157           0
</event>
<event>
      6   9999  3.45752E-01  4.71729E+01 -1.00000E+00  1.36154E-01
      21    -1     0     0   501   511  0.000000000E+00  0.000000000E+00  4.589606587E+02  4.589606587E+02  0.000000000E+00  0.00000E+00  9.000E+00
      21    -1     0     0   502   503  0.000000000E+00  0.000000000E+00 -7.645969350E+02  7.645969350E+02  0.000000000E+00  0.00000E+00  9.000E+00
      25     1     1     2     0     0 -2.389392450E+01  8.372905790E+01 -3.228910108E+02  3.570229122E+02  1.250011207E+02  0.00000E+00  9.000E+00
       5     1     1     2   501     0 -5.060496124E-01  4.002650480E+00  3.915582869E+02  3.916078802E+02  4.750000000E+00  0.00000E+00  9.000E+00
      -5     1     1     2     0   503  5.377286497E+01 -5.081938645E+01 -4.094450240E+02  4.161032579E+02  4.750000000E+00  0.00000E+00  9.000E+00
      21     1     1     2   502   511 -2.937289086E+01 -3.691232193E+01  3.514147174E+01  5.882354345E+01  1.066240300E-06  0.00000E+00  9.000E+00
#rwgt            1           9   4.7194675968971471E-002           4      246379           0
</event>
<event>
      6   9999  3.45752E-01  9.49808E+01 -1.00000E+00  1.21393E-01
      -3    -1     0     0     0   502  0.000000000E+00  0.000000000E+00  3.725034620E+01  3.725034620E+01  0.000000000E+00  0.00000E+00  9.000E+00
      21    -1     0     0   501   512  0.000000000E+00  0.000000000E+00 -1.447690154E+03  1.447690154E+03  0.000000000E+00  0.00000E+00  9.000E+00
      25     1     1     2     0     0 -7.434455794E+01 -7.691756170E+01 -8.156790157E+02  8.321061746E+02  1.250000181E+02  0.00000E+00  9.000E+00
       5     1     1     2   501     0  1.193527291E+00  2.618321414E+01 -7.735067293E+01  8.180876673E+01  4.750000000E+00  0.00000E+00  9.000E+00
      -5     1     1     2     0   502  1.931527682E+01  1.289843737E+02 -1.929018672E+02  2.329028584E+02  4.750000000E+00  0.00000E+00  9.000E+00
      -3     1     1     2     0   512  5.383575383E+01 -7.825002618E+01 -3.245082520E+02  3.381227005E+02  7.629394531E-06  0.00000E+00  9.000E+00
#rwgt            1           7   1.9863841932040799E-007           4      248347           0
</event>
<event>
      6   9999  3.45752E-01  3.57391E+00 -1.00000E+00  2.58430E-01
      21    -1     0     0   511   502  0.000000000E+00  0.000000000E+00  1.791842996E+01  1.791842996E+01  0.000000000E+00  0.00000E+00  9.000E+00
      21    -1     0     0   502   503  0.000000000E+00  0.000000000E+00 -2.765726259E+03  2.765726259E+03  0.000000000E+00  0.00000E+00  9.000E+00
      25     1     1     2     0     0 -2.804642462E+01 -5.599801896E+01 -2.537948008E+03  2.541796045E+03  1.249986500E+02  0.00000E+00  9.000E+00
       5     1     1     2   501     0 -2.950492547E+00  6.807083591E-02  1.074018329E+01  1.210884293E+01  4.750000000E+00  0.00000E+00  9.000E+00
      -5     1     1     2     0   503  2.910113060E+01  5.290029513E+01 -2.069565848E+02  2.156360534E+02  4.750000000E+00  0.00000E+00  9.000E+00
      21     1     1     2   511   501  1.895786570E+00  3.029653001E+00 -1.364341942E+01  1.410374764E+01  2.920019320E-07  0.00000E+00  9.000E+00
#rwgt            1           9   2.5617022608582786E-004           4      248580           0
</event>
<event>
      6   9999 -3.45752E-01  4.82032E+00 -1.00000E+00  2.32194E-01
      21    -1     0     0   501   502  0.000000000E+00  0.000000000E+00  1.708961944E+01  1.708961944E+01  0.000000000E+00  0.00000E+00  9.000E+00
       2    -1     0     0   502     0  0.000000000E+00  0.000000000E+00 -1.436672149E+03  1.436672149E+03  0.000000000E+00  0.00000E+00  9.000E+00
      25     1     1     2     0     0 -4.785022760E+00 -1.286237691E+01 -8.609803143E+02  8.701142222E+02  1.249932837E+02  0.00000E+00  9.000E+00
       5     1     1     2   501     0  2.593962378E+00  1.244631704E+01  8.495012523E+00  1.601147046E+01  4.750000000E+00  0.00000E+00  9.000E+00
      -5     1     1     2     0   503  6.757749899E+00 -1.126938735E+00 -6.713763399E+01  6.765324510E+01  4.750000000E+00  0.00000E+00  9.000E+00
       2     1     1     2   503     0 -4.566689516E+00  1.542998609E+00 -4.999595937E+02  4.999828305E+02  0.000000000E+00  0.00000E+00  9.000E+00
#rwgt            1           9 -0.74347720666703687                4      255968           0
</event>
<event>
      6   9999  3.45752E-01  9.94183E+00 -1.00000E+00  1.87461E-01
      21    -1     0     0   501   511  0.000000000E+00  0.000000000E+00  1.655141419E+03  1.655141419E+03  0.000000000E+00  0.00000E+00  9.000E+00
      21    -1     0     0   502   503  0.000000000E+00  0.000000000E+00 -1.150660696E+03  1.150660696E+03  0.000000000E+00  0.00000E+00  9.000E+00
      25     1     1     2     0     0 -4.913883378E+00  1.153067693E+01 -3.438655611E+02  3.660963275E+02  1.250035765E+02  0.00000E+00  9.000E+00
       5     1     1     2   501     0 -1.045012584E+00  6.639858739E+00  1.107534893E+01  1.379875463E+01  4.750000000E+00  0.00000E+00  9.000E+00
      -5     1     1     2     0   503  8.463858169E+00 -8.549461759E+00 -7.942502496E+02  7.943555575E+02  4.750000000E+00  0.00000E+00  9.000E+00
      21     1     1     2   502   511 -2.504962207E+00 -9.621073914E+00  1.631521185E+03  1.631551475E+03  3.051757812E-05  0.00000E+00  9.000E+00
#rwgt            1           9  0.42444046951817710                4      260682           0
</event>
<event>
      6   9999  3.45752E-01  4.66821E+00 -1.00000E+00  2.34736E-01
      21    -1     0     0   501   502  0.000000000E+00  0.000000000E+00  1.034728670E+01  1.034728670E+01  0.000000000E+00  0.00000E+00  9.000E+00
      21    -1     0     0   502   512  0.000000000E+00  0.000000000E+00 -8.942894852E+02  8.942894852E+02  0.000000000E+00  0.00000E+00  9.000E+00
      25     1     1     2     0     0  1.502152908E+00  1.023894276E+01 -7.902749028E+02  8.001664519E+02  1.249993452E+02  0.00000E+00  9.000E+00
       5     1     1     2   501     0 -3.540620993E-01  2.123407243E+00  2.248486408E+00  5.679120479E+00  4.750000000E+00  0.00000E+00  9.000E+00
      -5     1     1     2     0   503  2.283976060E+00 -9.198007711E+00 -1.918945912E+01  2.192299555E+01  4.750000000E+00  0.00000E+00  9.000E+00
      21     1     1     2   503   512 -3.432066869E+00 -3.164342294E+00 -7.672632300E+01  7.686820400E+01  2.132480600E-06  0.00000E+00  9.000E+00
#rwgt            1           9   6.5483392920883353E-005           4      263733           0
</event>
<event>
      6   9999  3.45752E-01  1.40033E+01 -1.00000E+00  1.73001E-01
      21    -1     0     0   511   502  0.000000000E+00  0.000000000E+00  1.354837920E+02  1.354837920E+02  0.000000000E+00  0.00000E+00  9.000E+00
      21    -1     0     0   502   503  0.000000000E+00  0.000000000E+00 -8.200597100E+02  8.200597100E+02  0.000000000E+00  0.00000E+00  9.000E+00
      25     1     1     2     0     0 -5.636960551E+00  4.800163166E+01 -4.677486902E+02  4.865694871E+02  1.250003864E+02  0.00000E+00  9.000E+00
       5     1     1     2   501     0  1.026396716E+01  1.280031478E+00 -1.440967616E+02  1.445455870E+02  4.750000000E+00  0.00000E+00  9.000E+00
      -5     1     1     2     0   503 -4.882377804E+00 -3.528069542E+01 -1.965561093E+02  1.998134922E+02  4.750000000E+00  0.00000E+00  9.000E+00
      21     1     1     2   511   501  2.553711916E-01 -1.400096772E+01  1.238256431E+02  1.246149357E+02  2.697398305E-06  0.00000E+00  9.000E+00
#rwgt            1           9   2.8383244461439125E-002           4      267937           0
</event>
<event>
      6   9999  3.45752E-01  4.07450E+00 -1.00000E+00  2.46203E-01
      21    -1     0     0   512   502  0.000000000E+00  0.000000000E+00  1.261616762E+02  1.261616762E+02  0.000000000E+00  0.00000E+00  9.000E+00
      21    -1     0     0   502   503  0.000000000E+00  0.000000000E+00 -1.361153900E+02  1.361153900E+02  0.000000000E+00  0.00000E+00  9.000E+00
      25     1     1     2     0     0  9.796575680E+00  9.878829397E+00 -9.960829430E+01  1.604395561E+02  1.250018989E+02  0.00000E+00  9.000E+00
       5     1     1     2   501     0 -3.650480850E+00 -6.444448231E-01  8.501199780E+01  8.522525207E+01  4.750000000E+00  0.00000E+00  9.000E+00
      -5     1     1     2     0   503 -2.239846717E+00 -1.039315461E+01  4.647398560E+00  1.253775855E+01  4.750000000E+00  0.00000E+00  9.000E+00
      21     1     1     2   512   501 -3.906248113E+00  1.158770039E+00 -4.815792158E-03  4.074499419E+00  9.544283376E-08  0.00000E+00  9.000E+00
#rwgt            1           9   1.1910609450034218E-004           4      270496           0
</event>
<event>
      6   9999  3.45752E-01  1.08551E+01 -1.00000E+00  1.83517E-01
      21    -1     0     0   511   502  0.000000000E+00  0.000000000E+00  8.417756944E+01  8.417756944E+01  0.000000000E+00  0.00000E+00  9.000E+00
      21    -1     0     0   502   503  0.000000000E+00  0.000000000E+00 -1.153576393E+03  1.153576393E+03  0.000000000E+00  0.00000E+00  9.000E+00
      25     1     1     2     0     0 -4.506739980E+01 -5.104913232E+01 -6.086507294E+02  6.250738894E+02  1.249982897E+02  0.00000E+00  9.000E+00
       5     1     1     2   501     0 -1.141440943E+00 -1.169205567E+00  2.669392914E+01  2.716244249E+01  4.750000000E+00  0.00000E+00  9.000E+00
      -5     1     1     2     0   503  3.535392587E+01  5.227684038E+01 -5.339866430E+02  5.377239678E+02  4.750000000E+00  0.00000E+00  9.000E+00
      21     1     1     2   511   501  1.085491487E+01 -5.850250082E-02  4.654461957E+01  4.779366286E+01  1.907348633E-06  0.00000E+00  9.000E+00
#rwgt            1           9   1.9287281124540120E-003           4      275640           0
</event>
<event>
      6   9999  3.45752E-01  6.53250E+00 -1.00000E+00  2.09040E-01
      21    -1     0     0   512   502  0.000000000E+00  0.000000000E+00  1.424240634E+01  1.424240634E+01  0.000000000E+00  0.00000E+00  9.000E+00
      21    -1     0     0   502   503  0.000000000E+00  0.000000000E+00 -8.185673246E+02  8.185673246E+02  0.000000000E+00  0.00000E+00  9.000E+00
      25     1     1     2     0     0 -2.412222880E+01 -8.441898763E+00 -7.627677081E+02  7.733642099E+02  1.249979078E+02  0.00000E+00  9.000E+00
       5     1     1     2   501     0 -4.456144204E-02 -3.085596283E-01  2.656103351E+00  5.451108124E+00  4.750000000E+00  0.00000E+00  9.000E+00
      -5     1     1     2     0   503  2.389012375E+01  2.223815205E+00 -3.511963510E+01  4.279760083E+01  4.750000000E+00  0.00000E+00  9.000E+00
      21     1     1     2   512   501  2.766664932E-01  6.526643186E+00 -9.093678416E+00  1.119681217E+01  1.685873940E-07  0.00000E+00  9.000E+00
#rwgt            1           9   4.2355876162859860E-006           4      279103           0
</event>
<event>
      6   9999  3.45752E-01  1.37771E+01 -1.00000E+00  1.73636E-01
       2    -1     0     0   501     0  0.000000000E+00  0.000000000E+00  4.166093464E+02  4.166093464E+02  0.000000000E+00  0.00000E+00  9.000E+00
      21    -1     0     0   502   503  0.000000000E+00  0.000000000E+00 -4.522112465E+03  4.522112465E+03  0.000000000E+00  0.00000E+00  9.000E+00
      25     1     1     2     0     0  2.673047220E+01  2.133023186E+01 -2.449423479E+03  2.452849195E+03  1.249971929E+02  0.00000E+00  9.000E+00
       5     1     1     2   501     0  6.221440351E+00 -5.418771298E+00  1.508179147E+01  1.783514329E+01  4.750000000E+00  0.00000E+00  9.000E+00
      -5     1     1     2     0   503 -2.193520927E+01 -7.638579588E+00 -2.069412437E+03  2.069548236E+03  4.750000000E+00  0.00000E+00  9.000E+00
       2     1     1     2   502     0 -1.101670328E+01 -8.272880978E+00  3.982510062E+02  3.984892373E+02  1.078959322E-05  0.00000E+00  9.000E+00
#rwgt            1           9  0.78114400597945366                4      282909           0
</event>
<event>
      6   9999  3.45752E-01  1.98342E+01 -1.00000E+00  1.60487E-01
      21    -1     0     0   502   503  0.000000000E+00  0.000000000E+00  5.735060784E+01  5.735060784E+01  0.000000000E+00  0.00000E+00  9.000E+00
      21    -1     0     0   511   502  0.000000000E+00  0.000000000E+00 -1.636635161E+03  1.636635161E+03  0.000000000E+00  0.00000E+00  9.000E+00
      25     1     1     2     0     0 -1.393206665E+01  7.285811362E+01 -3.049431902E+02  3.378157062E+02  1.250067793E+02  0.00000E+00  9.000E+00
       5     1     1     2   501     0 -7.120962347E+01 -5.606674110E+00 -9.631437615E+02  9.658005555E+02  4.750000000E+00  0.00000E+00  9.000E+00
      -5     1     1     2     0   503  1.048655130E+02 -6.934075866E+01 -6.176815919E+01  1.401527189E+02  4.750000000E+00  0.00000E+00  9.000E+00
      21     1     1     2   511   501 -1.972382286E+01  2.089319147E+00 -2.494294419E+02  2.502167878E+02  6.031565972E-06  0.00000E+00  9.000E+00
#rwgt            1           9   1.2257978372753428E-004           4      285897           0
</event>
<event>
      6   9999  3.45752E-01  7.40258E+00 -1.00000E+00  2.02091E-01
      21    -1     0     0   512   502  0.000000000E+00  0.000000000E+00  1.055721262E+01  1.055721262E+01  0.000000000E+00  0.00000E+00  9.000E+00
      21    -1     0     0   502   503  0.000000000E+00  0.000000000E+00 -6.997999905E+02  6.997999905E+02  0.000000000E+00  0.00000E+00  9.000E+00
      25     1     1     2     0     0  5.717144962E+00 -2.268871263E+00 -6.465984673E+02  6.585974310E+02  1.249926585E+02  0.00000E+00  9.000E+00
       5     1     1     2   501     0  1.543816110E-01 -6.482198349E-01 -2.019873334E+00  5.204460676E+00  4.750000000E+00  0.00000E+00  9.000E+00
      -5     1     1     2     0   503  1.143738078E-01 -1.438041910E+00 -3.854895585E+01  3.886728114E+01  4.750000000E+00  0.00000E+00  9.000E+00
      21     1     1     2   512   501 -5.985900381E+00  4.355133008E+00 -2.075481365E+00  7.688030293E+00  2.475566823E-07  0.00000E+00  9.000E+00
#rwgt            1           9   1.9639049437614455E-004           4      288972           0
</event>
<event>
      6   9999  3.45752E-01  1.55439E+02 -1.00000E+00  1.12820E-01
       1    -1     0     0   501     0  0.000000000E+00  0.000000000E+00  5.007953978E+01  5.007953978E+01  0.000000000E+00  0.00000E+00  9.000E+00
      21    -1     0     0   511   502  0.000000000E+00  0.000000000E+00 -1.198836886E+03  1.198836886E+03  0.000000000E+00  0.00000E+00  9.000E+00
      25     1     1     2     0     0 -1.047402618E+01 -1.232404942E+02 -8.231924218E+02  8.417649576E+02  1.249982236E+02  0.00000E+00  9.000E+00
       5     1     1     2   501     0  2.700691820E+00 -3.789158460E+00 -9.639887163E+01  9.662792769E+01  4.750000000E+00  0.00000E+00  9.000E+00
      -5     1     1     2     0   502  7.564157183E+00 -2.840889472E+01 -1.119475084E+02  1.158407912E+02  4.750000000E+00  0.00000E+00  9.000E+00
       1     1     1     2   511     0  2.091771740E-01  1.554385474E+02 -1.172185448E+02  1.946827497E+02  3.015782986E-06  0.00000E+00  9.000E+00
#rwgt            1           2   2.0979297819460393E-003           4      291994           0
</event>
<event>
      6   9999  3.45752E-01  2.39227E+01 -1.00000E+00  1.54492E-01
      21    -1     0     0   501   502  0.000000000E+00  0.000000000E+00  1.510119375E+01  1.510119375E+01  0.000000000E+00  0.00000E+00  9.000E+00
      21    -1     0     0   512   503  0.000000000E+00  0.000000000E+00 -3.428396982E+03  3.428396982E+03  0.000000000E+00  0.00000E+00  9.000E+00
      25     1     1     2     0     0 -5.929349667E+01  3.090630837E+01 -7.150376153E+02  7.289547956E+02  1.250015358E+02  0.00000E+00  9.000E+00
       5     1     1     2   501     0  3.142898967E+01 -2.838073848E+01 -5.509701505E+01  6.965264729E+01  4.750000000E+00  0.00000E+00  9.000E+00
      -5     1     1     2     0   503  9.170197768E+00  1.240146514E+01 -7.967893896E+01  8.129689218E+01  4.750000000E+00  0.00000E+00  9.000E+00
      21     1     1     2   512   502  1.869430924E+01 -1.492703503E+01 -2.563482219E+03  2.563593841E+03  4.315837288E-05  0.00000E+00  9.000E+00
#rwgt            1           9  0.88115850126619599                4      292131           0
</event>
<event>
      6   9999  3.45752E-01  6.42257E+00 -1.00000E+00  2.10022E-01
      21    -1     0     0   511   502  0.000000000E+00  0.000000000E+00  1.057782204E+03  1.057782204E+03  0.000000000E+00  0.00000E+00  9.000E+00
      21    -1     0     0   502   503  0.000000000E+00  0.000000000E+00 -1.706556146E+01  1.706556146E+01  0.000000000E+00  0.00000E+00  9.000E+00
      25     1     1     2     0     0  4.183639589E+00  8.828659342E+00  4.419642776E+02  4.594046709E+02  1.249991238E+02  0.00000E+00  9.000E+00
       5     1     1     2   501     0 -1.079492513E+00  8.776182148E-01  5.374867846E+02  5.375095735E+02  4.750000000E+00  0.00000E+00  9.000E+00
      -5     1     1     2     0   503  2.092305433E+00 -5.931854775E+00 -6.283280144E+00  1.008001748E+01  4.750000000E+00  0.00000E+00  9.000E+00
      21     1     1     2   511   501 -5.196452509E+00 -3.774422781E+00  6.754886089E+01  6.785350392E+01  0.000000000E+00  0.00000E+00  9.000E+00
#rwgt            1           9  0.92521902434441794                4      293389           0
</event>
<event>
      6   9999  3.45752E-01  1.61776E+01 -1.00000E+00  1.67575E-01
      21    -1     0     0   501   502  0.000000000E+00  0.000000000E+00  4.039266117E+03  4.039266117E+03  0.000000000E+00  0.00000E+00  9.000E+00
      21    -1     0     0   512   503  0.000000000E+00  0.000000000E+00 -4.759674354E+01  4.759674354E+01  0.000000000E+00  0.00000E+00  9.000E+00
      25     1     1     2     0     0 -9.307807822E+00  9.602301289E+00  1.075857523E+03  1.083176744E+03  1.249944429E+02  0.00000E+00  9.000E+00
       5     1     1     2   501     0 -4.137952733E+00  6.404288950E-01  2.921378825E+03  2.921385687E+03  4.750000000E+00  0.00000E+00  9.000E+00
      -5     1     1     2     0   503  5.233352281E+00  3.695425652E+00  3.643131844E+01  3.729406937E+01  4.750000000E+00  0.00000E+00  9.000E+00
      21     1     1     2   512   502  8.212408274E+00 -1.393815584E+01 -4.199829250E+01  4.500635967E+01  3.015782986E-06  0.00000E+00  9.000E+00
#rwgt            1           9   15.343007874157792                4      297275           0
</event>
<event>
      6   9999  3.45752E-01  1.37346E+01 -1.00000E+00  1.73757E-01
      21    -1     0     0   511   502  0.000000000E+00  0.000000000E+00  1.326741772E+01  1.326741772E+01  0.000000000E+00  0.00000E+00  9.000E+00
      21    -1     0     0   502   503  0.000000000E+00  0.000000000E+00 -7.929161204E+02  7.929161204E+02  0.000000000E+00  0.00000E+00  9.000E+00
      25     1     1     2     0     0 -5.164548384E+00  9.393875194E+00 -6.930556529E+02  7.043579080E+02  1.252158419E+02  0.00000E+00  9.000E+00
       5     1     1     2   501     0 -4.620110892E+00  6.037335481E-01  4.628326235E+00  8.105172583E+00  4.750000000E+00  0.00000E+00  9.000E+00
      -5     1     1     2     0   503 -6.362920058E-01 -1.050959652E+00 -5.065566520E+01  5.089271363E+01  4.750000000E+00  0.00000E+00  9.000E+00
      21     1     1     2   511   501  1.042095128E+01 -8.946649089E+00 -4.056571090E+01  4.282774400E+01  8.259061849E-07  0.00000E+00  9.000E+00
#rwgt            1           9   2.6841114866228841E-002           4      299166           0
</event>
<event>
      6   9999  3.45752E-01  2.20635E+01 -1.00000E+00  1.57022E-01
      21    -1     0     0   501   502  0.000000000E+00  0.000000000E+00  1.539171710E+03  1.539171710E+03  0.000000000E+00  0.00000E+00  9.000E+00
      21    -1     0     0   502   512  0.000000000E+00  0.000000000E+00 -4.475334181E+00  4.475334181E+00  0.000000000E+00  0.00000E+00  9.000E+00
      25     1     1     2     0     0 -1.835569728E+01 -1.185831866E+01  1.089358815E+03  1.096725086E+03  1.250029392E+02  0.00000E+00  9.000E+00
       5     1     1     2   501     0 -1.191878900E+00 -5.663532991E-01  1.371634055E+02  1.372519713E+02  4.750000000E+00  0.00000E+00  9.000E+00
      -5     1     1     2     0   503 -7.461025615E-01  3.766361387E+00  1.286821407E+02  1.288270080E+02  4.750000000E+00  0.00000E+00  9.000E+00
      21     1     1     2   503   512  2.029367874E+01  8.658310569E+00  1.794920142E+02  1.808429786E+02  1.907348633E-06  0.00000E+00  9.000E+00
#rwgt            1           9   1.9659822905509460E-005           4      301302           0
</event>
<event>
      6   9999 -3.45752E-01  5.46443E+00 -1.00000E+00  2.19875E-01
      21    -1     0     0   501   511  0.000000000E+00  0.000000000E+00  2.051578465E+02  2.051578465E+02  0.000000000E+00  0.00000E+00  9.000E+00
      21    -1     0     0   502   503  0.000000000E+00  0.000000000E+00 -7.800037751E+02  7.800037751E+02  0.000000000E+00  0.00000E+00  9.000E+00
      25     1     1     2     0     0  8.803411565E-01  7.111527692E+00 -7.560345528E+02  7.663323147E+02  1.250024906E+02  0.00000E+00  9.000E+00
       5     1     1     2   501     0 -3.649568685E+00 -3.637707329E+00  1.223028831E+01  1.409591140E+01  4.750000000E+00  0.00000E+00  9.000E+00
      -5     1     1     2     0   503 -2.395114250E+00 -1.687883980E+00 -1.741117526E+01  1.828379196E+01  4.750000000E+00  0.00000E+00  9.000E+00
      21     1     1     2   502   511  5.164341778E+00 -1.785936383E+00  1.863695111E+02  1.864496035E+02  3.814697266E-06  0.00000E+00  9.000E+00
#rwgt            1           9  -6.9773486447709074E-002           4      302174           0
</event>
<event>
      6   9999  3.45752E-01  1.94194E+00 -1.00000E+00  3.37915E-01
      21    -1     0     0   512   502  0.000000000E+00  0.000000000E+00  2.191945502E+03  2.191945502E+03  0.000000000E+00  0.00000E+00  9.000E+00
      21    -1     0     0   502   503  0.000000000E+00  0.000000000E+00 -6.417486020E+00  6.417486020E+00  0.000000000E+00  0.00000E+00  9.000E+00
      25     1     1     2     0     0  1.830496281E+00  4.499096062E+00  1.008062819E+03  1.015795373E+03  1.250039938E+02  0.00000E+00  9.000E+00
       5     1     1     2   501     0  3.120765756E+00 -1.724678590E+00  1.157748608E+03  1.157763843E+03  4.750000000E+00  0.00000E+00  9.000E+00
      -5     1     1     2     0   503 -3.134953540E+00 -2.087274560E+00  1.192438877E+00  6.178111302E+00  4.750000000E+00  0.00000E+00  9.000E+00
      21     1     1     2   512   501 -1.816308496E+00 -6.871429122E-01  1.852414984E+01  1.862566158E+01  3.371747881E-07  0.00000E+00  9.000E+00
#rwgt            1           9   25.666755089428857                4      306569           0
</event>
<event>
      6   9999  3.45752E-01  2.04517E+01 -1.00000E+00  1.59474E-01
      21    -1     0     0   501   502  0.000000000E+00  0.000000000E+00  7.819001289E+01  7.819001289E+01  0.000000000E+00  0.00000E+00  9.000E+00
      21    -1     0     0   511   503  0.000000000E+00  0.000000000E+00 -1.048186401E+03  1.048186401E+03  0.000000000E+00  0.00000E+00  9.000E+00
      25     1     1     2     0     0  1.227015175E+01  3.184942745E+00 -7.886598933E+02  7.986048346E+02  1.249982161E+02  0.00000E+00  9.000E+00
       5     1     1     2   501     0  7.965818876E+00 -1.296994701E+01  7.135444884E+01  7.311425077E+01  4.750000000E+00  0.00000E+00  9.000E+00
      -5     1     1     2     0   503  1.606409895E-01  8.285254411E+00 -1.222772373E+02  1.226497309E+02  4.750000000E+00  0.00000E+00  9.000E+00
      21     1     1     2   511   502 -2.039661161E+01  1.499749856E+00 -1.304137064E+02  1.320075976E+02  2.697398305E-06  0.00000E+00  9.000E+00
#rwgt            1           9  0.32210505630676634                4      315593           0
</event>
<event>
      6   9999  3.45752E-01  1.18340E+01 -1.00000E+00  1.79806E-01
      21    -1     0     0   501   502  0.000000000E+00  0.000000000E+00  3.513202646E+01  3.513202646E+01  0.000000000E+00  0.00000E+00  9.000E+00
      21    -1     0     0   512   503  0.000000000E+00  0.000000000E+00 -1.369430067E+03  1.369430067E+03  0.000000000E+00  0.00000E+00  9.000E+00
      25     1     1     2     0     0  1.947035742E+01 -1.217482846E+01 -9.448714939E+02  9.533797598E+02  1.249940210E+02  0.00000E+00  9.000E+00
       5     1     1     2   501     0 -4.908853482E-01 -2.145546899E+00  2.907085824E+01  2.953847726E+01  4.750000000E+00  0.00000E+00  9.000E+00
      -5     1     1     2     0   503 -2.837846901E+01  2.151083468E+01 -2.313529284E+02  2.341255934E+02  4.750000000E+00  0.00000E+00  9.000E+00
      21     1     1     2   512   502  9.398996944E+00 -7.190459322E+00 -1.871444764E+02  1.875182629E+02  2.697398305E-06  0.00000E+00  9.000E+00
#rwgt            1           9   1.5531029005708304E-003           4      318477           0
</event>
<event>
      6   9999  3.45752E-01  1.37516E+01 -1.00000E+00  1.73708E-01
      21    -1     0     0   501   511  0.000000000E+00  0.000000000E+00  5.772953343E+01  5.772953343E+01  0.000000000E+00  0.00000E+00  9.000E+00
      21    -1     0     0   502   503  0.000000000E+00  0.000000000E+00 -1.270245462E+03  1.270245462E+03  0.000000000E+00  0.00000E+00  9.000E+00
      25     1     1     2     0     0  7.825560887E+00 -1.905889089E+01 -1.199804232E+03  1.206473968E+03  1.249990323E+02  0.00000E+00  9.000E+00
       5     1     1     2   501     0 -4.888907869E+00  9.432876707E+00  3.615467209E+01  3.798161920E+01  4.750000000E+00  0.00000E+00  9.000E+00
      -5     1     1     2     0   503  2.020354888E+00  2.245313514E+01 -6.098391856E+01  6.519068901E+01  4.750000000E+00  0.00000E+00  9.000E+00
      21     1     1     2   502   511 -4.957007906E+00 -1.282712096E+01  1.211754984E+01  1.832871991E+01  5.840038640E-07  0.00000E+00  9.000E+00
#rwgt            1           9   5.3128258989785021E-003           4      321665           0
</event>
<event>
      6   9999  3.45752E-01  4.61507E+00 -1.00000E+00  2.35657E-01
      21    -1     0     0   512   502  0.000000000E+00  0.000000000E+00  1.165012243E+01  1.165012243E+01  0.000000000E+00  0.00000E+00  9.000E+00
      21    -1     0     0   502   503  0.000000000E+00  0.000000000E+00 -7.245965690E+02  7.245965690E+02  0.000000000E+00  0.00000E+00  9.000E+00
      25     1     1     2     0     0 -1.148439305E+01  1.907166021E+01 -6.662921449E+02  6.782811125E+02  1.249977030E+02  0.00000E+00  9.000E+00
       5     1     1     2   501     0 -3.433423711E-01  2.129465711E-01 -2.105577603E+00  5.211447713E+00  4.750000000E+00  0.00000E+00  9.000E+00
      -5     1     1     2     0   503  8.558011027E+00 -1.602764755E+01 -4.431849569E+01  4.813332109E+01  4.750000000E+00  0.00000E+00  9.000E+00
      21     1     1     2   512   501  3.269724394E+00 -3.256959228E+00 -2.302283950E-01  4.620810117E+00  2.446242446E-07  0.00000E+00  9.000E+00
#rwgt            1           9   6.4651857762238816E-005           4      324612           0
</event>
<event>
      6   9999 -3.45752E-01  4.23971E+00 -1.00000E+00  2.42732E-01
      21    -1     0     0   501   511  0.000000000E+00  0.000000000E+00  5.480027748E+02  5.480027748E+02  0.000000000E+00  0.00000E+00  9.000E+00
      21    -1     0     0   502   503  0.000000000E+00  0.000000000E+00 -2.115979322E+03  2.115979322E+03  0.000000000E+00  0.00000E+00  9.000E+00
      25     1     1     2     0     0 -7.213615488E+00 -5.004762688E+00 -1.863689481E+03  1.867896813E+03  1.249917484E+02  0.00000E+00  9.000E+00
       5     1     1     2   501     0  2.274098716E+00 -2.049983003E+00  2.586894444E+00  6.215181264E+00  4.750000000E+00  0.00000E+00  9.000E+00
      -5     1     1     2     0   503  1.346337982E+00  4.804367234E+00 -2.483159625E+02  2.484115019E+02  4.750000000E+00  0.00000E+00  9.000E+00
      21     1     1     2   502   511  3.593178790E+00  2.250378458E+00  5.414420018E+02  5.414586009E+02  1.078959322E-05  0.00000E+00  9.000E+00
#rwgt            1           9  -76.268133857487967                4      328692           0
</event>
<event>
      6   9999  3.45752E-01  2.38344E+01 -1.00000E+00  1.54606E-01
      21    -1     0     0   501   502  0.000000000E+00  0.000000000E+00  1.734781605E+01  1.734781605E+01  0.000000000E+00  0.00000E+00  9.000E+00
      21    -1     0     0   502   512  0.000000000E+00  0.000000000E+00 -1.117217374E+03  1.117217374E+03  0.000000000E+00  0.00000E+00  9.000E+00
      25     1     1     2     0     0  1.573375194E+01 -4.033861577E+01 -8.571097798E+02  8.672579708E+02  1.249978336E+02  0.00000E+00  9.000E+00
       5     1     1     2   501     0 -5.122987855E-01 -2.240815269E+00  3.434300759E+00  6.296080115E+00  4.750000000E+00  0.00000E+00  9.000E+00
      -5     1     1     2     0   503 -3.312328876E+01  2.684395955E+01 -6.267287088E+01  7.594867784E+01  4.750000000E+00  0.00000E+00  9.000E+00
      21     1     1     2   503   512  1.790183560E+01  1.573547149E+01 -1.835212082E+02  1.850624615E+02  2.697398305E-06  0.00000E+00  9.000E+00
#rwgt            1           9   2.2062092199776081E-004           4      333895           0
</event>
<event>
      6   9999 -3.45752E-01  1.06173E+01 -1.00000E+00  1.84495E-01
      21    -1     0     0   501   502  0.000000000E+00  0.000000000E+00  7.220475941E+01  7.220475941E+01  0.000000000E+00  0.00000E+00  9.000E+00
      -1    -1     0     0     0   503  0.000000000E+00  0.000000000E+00 -5.614559263E+02  5.614559263E+02  0.000000000E+00  0.00000E+00  9.000E+00
      25     1     1     2     0     0  6.251895927E+00  4.108114725E-02 -1.272220957E+02  1.784688339E+02  1.250063005E+02  0.00000E+00  9.000E+00
       5     1     1     2   501     0  1.884655383E+00 -4.814950070E+00  4.511914004E+01  4.566218313E+01  4.750000000E+00  0.00000E+00  9.000E+00
      -5     1     1     2     0   503  1.050782587E+00 -5.476924314E-01 -4.225082294E+00  6.466678548E+00  4.750000000E+00  0.00000E+00  9.000E+00
      -1     1     1     2     0   502 -9.187333897E+00  5.321561354E+00 -4.029231290E+02  4.030629901E+02  5.394796609E-06  0.00000E+00  9.000E+00
#rwgt            1           9  -2.9533299498512989E-003           4      335233           0
</event>
<event>
      6   9999  3.45752E-01  1.52692E+01 -1.00000E+00  1.69705E-01
      21    -1     0     0   501   502  0.000000000E+00  0.000000000E+00  2.870037151E+01  2.870037151E+01  0.000000000E+00  0.00000E+00  9.000E+00
      21    -1     0     0   511   503  0.000000000E+00  0.000000000E+00 -1.709996304E+03  1.709996304E+03  0.000000000E+00  0.00000E+00  9.000E+00
      25     1     1     2     0     0 -1.131054132E+02 -9.731272386E+01 -6.970006427E+02  7.236683498E+02  1.249935351E+02  0.00000E+00  9.000E+00
       5     1     1     2   501     0  1.088098902E+02  1.053613087E+02 -3.709387610E+02  4.006977970E+02  4.750000000E+00  0.00000E+00  9.000E+00
      -5     1     1     2     0   503 -4.043872579E+00  4.742202213E+00 -3.943990703E+01  4.021082135E+01  4.750000000E+00  0.00000E+00  9.000E+00
      21     1     1     2   511   502  8.339395575E+00 -1.279078702E+01 -5.739166214E+02  5.741197071E+02  1.078959322E-05  0.00000E+00  9.000E+00
#rwgt            1           9   1.2629727431969990E-003           4      338109           0
</event>
<event>
      6   9999  3.45752E-01  9.35978E+00 -1.00000E+00  1.90272E-01
      21    -1     0     0   512   502  0.000000000E+00  0.000000000E+00  1.149700408E+02  1.149700408E+02  0.000000000E+00  0.00000E+00  9.000E+00
      21    -1     0     0   502   503  0.000000000E+00  0.000000000E+00 -1.422306225E+03  1.422306225E+03  0.000000000E+00  0.00000E+00  9.000E+00
      25     1     1     2     0     0  1.423549826E+00 -3.046336967E-01 -1.229591824E+03  1.235930393E+03  1.250030550E+02  0.00000E+00  9.000E+00
       5     1     1     2   501     0  1.272912887E+01  1.974923352E+01  1.070087540E+02  1.096608357E+02  4.750000000E+00  0.00000E+00  9.000E+00
      -5     1     1     2     0   503 -5.374786583E+00 -1.619590492E+01 -1.805636974E+02  1.814304467E+02  4.750000000E+00  0.00000E+00  9.000E+00
      21     1     1     2   512   501 -8.777892116E+00 -3.248694899E+00 -4.189416847E+00  1.025459029E+01  1.460009660E-07  0.00000E+00  9.000E+00
#rwgt            1           9   2.4003119886478481E-002           4      340668           0
</event>
<event>
      6   9999  3.45752E-01  6.94873E+00 -1.00000E+00  2.05546E-01
      21    -1     0     0   501   511  0.000000000E+00  0.000000000E+00  8.910787421E+00  8.910787421E+00  0.000000000E+00  0.00000E+00  9.000E+00
      21    -1     0     0   502   503  0.000000000E+00  0.000000000E+00 -7.280191963E+02  7.280191963E+02  0.000000000E+00  0.00000E+00  9.000E+00
      25     1     1     2     0     0 -1.702293047E+01 -6.082045216E+00 -5.861625548E+02  5.995980575E+02  1.249180472E+02  0.00000E+00  9.000E+00
       5     1     1     2   501     0  1.885338668E-01  3.925021117E-01 -1.056409211E+01  1.159103727E+01  4.750000000E+00  0.00000E+00  9.000E+00
      -5     1     1     2     0   503  1.027387987E+01  3.399449822E+00 -1.149902433E+02  1.155959663E+02  4.750000000E+00  0.00000E+00  9.000E+00
      21     1     1     2   502   511  6.560516725E+00  2.290093282E+00 -7.391518651E+00  1.014492262E+01  2.665600750E-07  0.00000E+00  9.000E+00
#rwgt            1           9   3.2192781951794189E-002           4      345788           0
</event>
<event>
      6   9999  3.45752E-01  5.07514E+00 -1.00000E+00  2.24713E-01
      21    -1     0     0   501   502  0.000000000E+00  0.000000000E+00  6.856198348E+00  6.856198348E+00  0.000000000E+00  0.00000E+00  9.000E+00
      21    -1     0     0   502   512  0.000000000E+00  0.000000000E+00 -7.213090352E+02  7.213090352E+02  0.000000000E+00  0.00000E+00  9.000E+00
      25     1     1     2     0     0  1.431491798E+00  7.152284543E+00 -6.321264555E+02  6.444087019E+02  1.250020602E+02  0.00000E+00  9.000E+00
       5     1     1     2   501     0 -2.841977666E-02 -2.615886845E+00 -2.490974653E+01  2.549316857E+01  4.750000000E+00  0.00000E+00  9.000E+00
      -5     1     1     2     0   503  5.481300372E-01  1.486736285E-01 -2.531830727E+01  2.576629064E+01  4.750000000E+00  0.00000E+00  9.000E+00
      21     1     1     2   503   512 -1.951202058E+00 -4.685071326E+00 -3.209832754E+01  3.249707238E+01  4.768371582E-07  0.00000E+00  9.000E+00
#rwgt            1           9   2.3074140135581872E-004           4      348777           0
</event>
<event>
      6   9999  3.45752E-01  8.60302E+00 -1.00000E+00  1.94351E-01
      21    -1     0     0   502   503  0.000000000E+00  0.000000000E+00  4.479676593E+01  4.479676593E+01  0.000000000E+00  0.00000E+00  9.000E+00
      21    -1     0     0   511   502  0.000000000E+00  0.000000000E+00 -2.032240128E+02  2.032240128E+02  0.000000000E+00  0.00000E+00  9.000E+00
      25     1     1     2     0     0  1.580797036E+01 -2.267340576E+00 -1.122361273E+02  1.687509574E+02  1.249996184E+02  0.00000E+00  9.000E+00
       5     1     1     2   501     0  1.250792917E-01  1.987546703E-01 -1.361106796E+00  4.946742358E+00  4.750000000E+00  0.00000E+00  9.000E+00
      -5     1     1     2     0   503 -1.371524252E+01  1.038082652E+01  8.877480788E+00  1.993092074E+01  4.750000000E+00  0.00000E+00  9.000E+00
      21     1     1     2   511   501 -2.217807131E+00 -8.312240610E+00 -5.370749355E+01  5.439215822E+01  6.743495762E-07  0.00000E+00  9.000E+00
#rwgt            1           9   2.1043407415652199E-003           4      352447           0
</event>
<event>
      6   9999  3.45752E-01  1.75811E+01 -1.00000E+00  1.64604E-01
      21    -1     0     0   512   502  0.000000000E+00  0.000000000E+00  8.457306434E+01  8.457306434E+01  0.000000000E+00  0.00000E+00  9.000E+00
      21    -1     0     0   502   503  0.000000000E+00  0.000000000E+00 -2.704732701E+03  2.704732701E+03  0.000000000E+00  0.00000E+00  9.000E+00
      25     1     1     2     0     0 -3.305133126E+00  7.154325872E+01 -1.176692224E+03  1.185478527E+03  1.250015485E+02  0.00000E+00  9.000E+00
       5     1     1     2   501     0 -3.312975795E+00 -9.736485395E-01  5.722866978E+01  5.752918342E+01  4.750000000E+00  0.00000E+00  9.000E+00
      -5     1     1     2     0   503  2.251732644E+01 -6.306559873E+01 -1.519252868E+03  1.520735394E+03  4.750000000E+00  0.00000E+00  9.000E+00
      21     1     1     2   512   501 -1.589921752E+01 -7.504011456E+00  1.855678564E+01  2.556266025E+01  1.066240300E-06  0.00000E+00  9.000E+00
#rwgt            1           9  0.10011924298492357                4      355404           0
</event>
<event>
      6   9999 -3.45752E-01  7.96466E+00 -1.00000E+00  1.98243E-01
      21    -1     0     0   501   502  0.000000000E+00  0.000000000E+00  2.358760876E+01  2.358760876E+01  0.000000000E+00  0.00000E+00  9.000E+00
      21    -1     0     0   502   511  0.000000000E+00  0.000000000E+00 -1.642332385E+03  1.642332385E+03  0.000000000E+00  0.00000E+00  9.000E+00
      25     1     1     2     0     0 -1.139023058E+01 -8.527460822E-01 -1.036320904E+03  1.043895564E+03  1.250058723E+02  0.00000E+00  9.000E+00
       5     1     1     2   501     0  6.307646994E-01 -1.449161504E+00  1.631721224E+01  1.706786011E+01  4.750000000E+00  0.00000E+00  9.000E+00
      -5     1     1     2     0   503  2.832544068E+00  1.527513496E+00  4.103749661E-01  5.752174458E+00  4.750000000E+00  0.00000E+00  9.000E+00
      21     1     1     2   503   511  7.926921815E+00  7.743940908E-01 -5.991514601E+02  5.992043958E+02  0.000000000E+00  0.00000E+00  9.000E+00
#rwgt            1           9  -5.7034745739022619E-004           4      358640           0
</event>
<event>
      6   9999  3.45752E-01  6.88604E+00 -1.00000E+00  2.06051E-01
      21    -1     0     0   501   512  0.000000000E+00  0.000000000E+00  2.939744438E+01  2.939744438E+01  0.000000000E+00  0.00000E+00  9.000E+00
      21    -1     0     0   502   503  0.000000000E+00  0.000000000E+00 -2.599327430E+03  2.599327430E+03  0.000000000E+00  0.00000E+00  9.000E+00
      25     1     1     2     0     0  1.130063867E+02  1.491235773E+02 -1.241473642E+03  1.261701790E+03  1.250052700E+02  0.00000E+00  9.000E+00
       5     1     1     2   501     0 -1.092994330E+00 -2.107828385E-02  1.159592285E-02  4.874188688E+00  4.750000000E+00  0.00000E+00  9.000E+00
      -5     1     1     2     0   503 -1.137703323E+02 -1.557334307E+02 -1.337190540E+03  1.351035785E+03  4.750000000E+00  0.00000E+00  9.000E+00
      21     1     1     2   502   512  1.856939873E+00  6.630931660E+00  8.722600317E+00  1.111311103E+01  1.289445618E-06  0.00000E+00  9.000E+00
#rwgt            1           9   2.5486273104389030E-006           4      362423           0
</event>
<event>
      6   9999  3.45752E-01  2.97799E+01 -1.00000E+00  1.48045E-01
      21    -1     0     0   501   511  0.000000000E+00  0.000000000E+00  3.426655124E+01  3.426655124E+01  0.000000000E+00  0.00000E+00  9.000E+00
      21    -1     0     0   502   503  0.000000000E+00  0.000000000E+00 -7.658805253E+02  7.658805253E+02  0.000000000E+00  0.00000E+00  9.000E+00
      25     1     1     2     0     0 -2.567309093E+01  1.952390574E+01 -4.983045312E+02  5.147547176E+02  1.249988922E+02  0.00000E+00  9.000E+00
       5     1     1     2   501     0 -2.608439178E+00  2.344503317E+00 -2.641509781E+01  2.706696405E+01  4.750000000E+00  0.00000E+00  9.000E+00
      -5     1     1     2     0   503  4.784232370E+00 -3.573135808E+00 -2.239014007E+02  2.240313726E+02  4.750000000E+00  0.00000E+00  9.000E+00
      21     1     1     2   502   511  2.349729774E+01 -1.829527325E+01  1.700705557E+01  3.429402227E+01  8.259061849E-07  0.00000E+00  9.000E+00
#rwgt            1           9   1.4773863909345880E-002           4      366707           0
</event>
<event>
      6   9999  3.45752E-01  3.03381E+01 -1.00000E+00  1.47524E-01
      21    -1     0     0   501   502  0.000000000E+00  0.000000000E+00  2.848508081E+02  2.848508081E+02  0.000000000E+00  0.00000E+00  9.000E+00
      21    -1     0     0   512   503  0.000000000E+00  0.000000000E+00 -4.309532844E+02  4.309532844E+02  0.000000000E+00  0.00000E+00  9.000E+00
      25     1     1     2     0     0 -2.059414783E+01  7.312800279E+01 -2.848974560E+02  3.202549940E+02  1.249995082E+02  0.00000E+00  9.000E+00
       5     1     1     2   501     0  8.504476340E+00  2.060431403E+01  2.224128429E+02  2.235775012E+02  4.750000000E+00  0.00000E+00  9.000E+00
      -5     1     1     2     0   503  1.060267753E+01 -6.343067564E+01  1.715691563E+01  6.672922626E+01  4.750000000E+00  0.00000E+00  9.000E+00
      21     1     1     2   512   502  1.486993960E+00 -3.030164119E+01 -1.007747788E+02  1.052423710E+02  1.348699152E-06  0.00000E+00  9.000E+00
#rwgt            1           9   4.4980162236788867E-004           4      367633           0
</event>
<event>
      6   9999  3.45752E-01  2.42598E+01 -1.00000E+00  1.54063E-01
      21    -1     0     0   501   502  0.000000000E+00  0.000000000E+00  6.108246807E+01  6.108246807E+01  0.000000000E+00  0.00000E+00  9.000E+00
      21    -1     0     0   502   511  0.000000000E+00  0.000000000E+00 -1.502728013E+03  1.502728013E+03  0.000000000E+00  0.00000E+00  9.000E+00
      25     1     1     2     0     0 -1.541432830E+02  7.663043116E+01 -9.931508348E+02  1.015681578E+03  1.250124470E+02  0.00000E+00  9.000E+00
       5     1     1     2   501     0 -9.180806770E+00  4.154395356E+00  2.937369019E+01  3.141532093E+01  4.750000000E+00  0.00000E+00  9.000E+00
      -5     1     1     2     0   503  1.411071050E+02 -9.052878467E+01 -3.713558900E+02  4.074732329E+02  4.750000000E+00  0.00000E+00  9.000E+00
      21     1     1     2   503   511  2.221698478E+01  9.743958147E+00 -1.065125103E+02  1.092403496E+02  1.348699152E-06  0.00000E+00  9.000E+00
#rwgt            1           9   2.5610663745118550E-005           4      369766           0
</event>
<event>
      6   9999  3.45752E-01  6.80709E+00 -1.00000E+00  2.06698E-01
      21    -1     0     0   512   502  0.000000000E+00  0.000000000E+00  5.651343365E+01  5.651343365E+01  0.000000000E+00  0.00000E+00  9.000E+00
      21    -1     0     0   502   503  0.000000000E+00  0.000000000E+00 -8.966006387E+02  8.966006387E+02  0.000000000E+00  0.00000E+00  9.000E+00
      25     1     1     2     0     0 -2.315928036E+01 -1.342867556E+01 -8.404386057E+02  8.501053170E+02  1.250012741E+02  0.00000E+00  9.000E+00
       5     1     1     2   501     0  2.184045858E+00  1.450574604E+00  6.940225661E+00  8.809282333E+00  4.750000000E+00  0.00000E+00  9.000E+00
      -5     1     1     2     0   503  2.309729713E+01  1.844596476E+01 -4.562703949E+01  5.457222721E+01  4.750000000E+00  0.00000E+00  9.000E+00
      21     1     1     2   512   501 -2.122062630E+00 -6.467863804E+00  3.903821451E+01  3.962724573E+01  1.348699152E-06  0.00000E+00  9.000E+00
#rwgt            1           9   6.0376700618415607E-003           4      372400           0
</event>
<event>
      6   9999  3.45752E-01  5.05210E+01 -1.00000E+00  1.34547E-01
      21    -1     0     0   501   502  0.000000000E+00  0.000000000E+00  4.396528812E+01  4.396528812E+01  0.000000000E+00  0.00000E+00  9.000E+00
      21    -1     0     0   511   503  0.000000000E+00  0.000000000E+00 -1.425958645E+03  1.425958645E+03  0.000000000E+00  0.00000E+00  9.000E+00
      25     1     1     2     0     0  1.336136220E+02 -1.523658298E+02 -7.804235040E+02  8.159371813E+02  1.249987686E+02  0.00000E+00  9.000E+00
       5     1     1     2   501     0 -2.613721519E+01  1.070002488E+02 -1.430981058E+02  1.806428455E+02  4.750000000E+00  0.00000E+00  9.000E+00
      -5     1     1     2     0   503 -6.292301441E+01  2.154605421E+01 -2.825791397E+02  2.903395786E+02  4.750000000E+00  0.00000E+00  9.000E+00
      21     1     1     2   511   502 -4.455339241E+01  2.381952681E+01 -1.758926071E+02  1.830043274E+02  1.907348633E-06  0.00000E+00  9.000E+00
#rwgt            1           9   6.1236222876226518E-003           4      376205           0
</event>
<event>
      6   9999  3.45752E-01  7.44596E+00 -1.00000E+00  2.01779E-01
      21    -1     0     0   501   502  0.000000000E+00  0.000000000E+00  2.180884559E+01  2.180884559E+01  0.000000000E+00  0.00000E+00  9.000E+00
      21    -1     0     0   512   503  0.000000000E+00  0.000000000E+00 -2.422594016E+03  2.422594016E+03  0.000000000E+00  0.00000E+00  9.000E+00
      25     1     1     2     0     0 -1.410385764E+01  5.783826150E+01 -1.689699210E+03  1.695362023E+03  1.249991432E+02  0.00000E+00  9.000E+00
       5     1     1     2   501     0 -4.722064052E+00 -4.472275439E+00  1.676664873E+01  1.860059532E+01  4.750000000E+00  0.00000E+00  9.000E+00
      -5     1     1     2     0   503  2.391284379E+01 -4.792856101E+01 -6.572639596E+02  6.594599656E+02  4.750000000E+00  0.00000E+00  9.000E+00
      21     1     1     2   512   502 -5.086922107E+00 -5.437425045E+00 -7.058864963E+01  7.098027771E+01  0.000000000E+00  0.00000E+00  9.000E+00
#rwgt            1           9   9.7041307948959141E-002           4      377457           0
</event>
<event>
      6   9999  3.45752E-01  8.66665E+00 -1.00000E+00  1.93987E-01
      21    -1     0     0   511   502  0.000000000E+00  0.000000000E+00  3.495916697E+00  3.495916697E+00  0.000000000E+00  0.00000E+00  9.000E+00
      21    -1     0     0   502   503  0.000000000E+00  0.000000000E+00 -2.690818625E+03  2.690818625E+03  0.000000000E+00  0.00000E+00  9.000E+00
      25     1     1     2     0     0 -1.129909232E+01 -1.081130158E+01 -2.192331057E+03  2.195947246E+03  1.249971524E+02  0.00000E+00  9.000E+00
       5     1     1     2   501     0  1.569099939E+01  2.694557273E+00 -3.773306912E+02  3.776962816E+02  4.750000000E+00  0.00000E+00  9.000E+00
      -5     1     1     2     0   503  1.171965510E+00  1.471887011E+00 -1.060965726E+02  1.062195141E+02  4.750000000E+00  0.00000E+00  9.000E+00
      21     1     1     2   511   501 -5.563872579E+00  6.644857292E+00 -1.156438739E+01  1.445150034E+01  1.011524364E-06  0.00000E+00  9.000E+00
#rwgt            1           9   2.0714794589692023E-004           4      382128           0
</event>
<event>
      6   9999  3.45752E-01  3.28358E+01 -1.00000E+00  1.45345E-01
      21    -1     0     0   501   502  0.000000000E+00  0.000000000E+00  7.615175142E+00  7.615175142E+00  0.000000000E+00  0.00000E+00  9.000E+00
      21    -1     0     0   512   503  0.000000000E+00  0.000000000E+00 -1.241480716E+03  1.241480716E+03  0.000000000E+00  0.00000E+00  9.000E+00
      25     1     1     2     0     0  2.736450919E+00 -3.399862247E+01 -7.189892511E+02  7.305695117E+02  1.249914947E+02  0.00000E+00  9.000E+00
       5     1     1     2   501     0  2.178554589E-01 -1.802957532E+00 -7.708244487E+00  9.234589863E+00  4.750000000E+00  0.00000E+00  9.000E+00
      -5     1     1     2     0   503  6.031936700E-01  3.159028440E+00 -2.461050288E+02  2.461718729E+02  4.750000000E+00  0.00000E+00  9.000E+00
      21     1     1     2   512   502 -3.557500047E+00  3.264255157E+01 -2.610630164E+02  2.631199166E+02  0.000000000E+00  0.00000E+00  9.000E+00
#rwgt            1           9   7.4917580135400397E-002           4      384301           0
</event>
<event>
      6   9999  3.45752E-01  3.29869E+00 -1.00000E+00  2.66557E-01
      21    -1     0     0   501   502  0.000000000E+00  0.000000000E+00  1.195088865E+01  1.195088865E+01  0.000000000E+00  0.00000E+00  9.000E+00
      21    -1     0     0   511   503  0.000000000E+00  0.000000000E+00 -7.987112871E+02  7.987112871E+02  0.000000000E+00  0.00000E+00  9.000E+00
      25     1     1     2     0     0  1.951944265E+00 -1.499880049E+00 -7.129165061E+02  7.237957109E+02  1.249969071E+02  0.00000E+00  9.000E+00
       5     1     1     2   501     0 -2.707848415E+00 -9.117185551E-01  4.931513035E+00  7.419298793E+00  4.750000000E+00  0.00000E+00  9.000E+00
      -5     1     1     2     0   503 -1.584770948E+00  4.735941056E+00 -4.732634930E+01  4.782558389E+01  4.750000000E+00  0.00000E+00  9.000E+00
      21     1     1     2   511   502  2.340675099E+00 -2.324342452E+00 -3.144905610E+01  3.162158214E+01  5.840038640E-07  0.00000E+00  9.000E+00
#rwgt            1           9   3.1337557057117675E-003           4      385197           0
</event>
<event>
      6   9999  3.45752E-01  1.10426E+01 -1.00000E+00  1.82768E-01
      21    -1     0     0   512   502  0.000000000E+00  0.000000000E+00  2.693577964E+01  2.693577964E+01  0.000000000E+00  0.00000E+00  9.000E+00
      21    -1     0     0   502   503  0.000000000E+00  0.000000000E+00 -3.690067392E+02  3.690067392E+02  0.000000000E+00  0.00000E+00  9.000E+00
      25     1     1     2     0     0 -2.584551626E+01  1.526554740E+01 -3.282833147E+02  3.525557716E+02  1.249984390E+02  0.00000E+00  9.000E+00
       5     1     1     2   501     0  1.436878805E+00 -3.942127732E+00  3.660999827E+00  7.319181066E+00  4.750000000E+00  0.00000E+00  9.000E+00
      -5     1     1     2     0   503  1.992822437E+01 -1.230602335E+00 -1.134546102E+01  2.345059689E+01  4.750000000E+00  0.00000E+00  9.000E+00
      21     1     1     2   512   501  4.480413086E+00 -1.009281734E+01 -6.103183747E+00  1.261696933E+01  0.000000000E+00  0.00000E+00  9.000E+00
#rwgt            1           9   5.9103890316629157E-005           4      390437           0
</event>
<event>
      6   9999 -3.45752E-01  8.44620E+00 -1.00000E+00  1.95265E-01
      21    -1     0     0   501   502  0.000000000E+00  0.000000000E+00  1.290242970E+01  1.290242970E+01  0.000000000E+00  0.00000E+00  9.000E+00
      21    -1     0     0   502   511  0.000000000E+00  0.000000000E+00 -4.911652879E+03  4.911652879E+03  0.000000000E+00  0.00000E+00  9.000E+00
      25     1     1     2     0     0 -3.844083581E+01 -2.283063835E+01 -4.776131688E+02  4.957205777E+02  1.250024650E+02  0.00000E+00  9.000E+00
       5     1     1     2   501     0  2.477556453E+00 -4.080725723E-01  1.733478742E+00  5.645552033E+00  4.750000000E+00  0.00000E+00  9.000E+00
      -5     1     1     2     0   503  3.202605467E+01  3.071110076E+01 -3.732277325E+03  3.732544097E+03  4.750000000E+00  0.00000E+00  9.000E+00
      21     1     1     2   503   511  3.937224688E+00 -7.472389839E+00 -6.905934339E+02  6.906450821E+02  7.629394531E-06  0.00000E+00  9.000E+00
#rwgt            1           9 -0.11972396177548800                4      392759           0
</event>
<event>
      6   9999  3.45752E-01  1.07633E+01 -1.00000E+00  1.83891E-01
      21    -1     0     0   512   503  0.000000000E+00  0.000000000E+00  3.026880122E+00  3.026880122E+00  0.000000000E+00  0.00000E+00  9.000E+00
      21    -1     0     0   501   502  0.000000000E+00  0.000000000E+00 -2.038397073E+03  2.038397073E+03  0.000000000E+00  0.00000E+00  9.000E+00
      25     1     1     2     0     0 -1.112263104E+00  8.116877724E+00 -1.605762289E+03  1.610640843E+03  1.249970972E+02  0.00000E+00  9.000E+00
       5     1     1     2   501     0 -9.084360647E-01  1.557714801E+00 -3.061163799E+02  3.061585411E+02  4.750000000E+00  0.00000E+00  9.000E+00
      -5     1     1     2     0   503  3.258715030E-01  9.543836834E-01 -6.268519985E+01  6.287299755E+01  4.750000000E+00  0.00000E+00  9.000E+00
      21     1     1     2   512   502  1.694827666E+00 -1.062897621E+01 -6.080632444E+01  6.175157219E+01  9.536743164E-07  0.00000E+00  9.000E+00
#rwgt            1           9   4.9777086212019164E-002           4      396416           0
</event>
<event>
      6   9999  3.45752E-01  1.06751E+01 -1.00000E+00  1.84254E-01
      21    -1     0     0   511   503  0.000000000E+00  0.000000000E+00  7.052089609E+00  7.052089609E+00  0.000000000E+00  0.00000E+00  9.000E+00
      21    -1     0     0   501   502  0.000000000E+00  0.000000000E+00 -3.695369106E+03  3.695369106E+03  0.000000000E+00  0.00000E+00  9.000E+00
      25     1     1     2     0     0  2.682069530E+01 -1.262206116E+01 -1.541032538E+03  1.546378339E+03  1.250040810E+02  0.00000E+00  9.000E+00
       5     1     1     2   501     0 -9.533325479E+01  3.205965835E+01 -1.616081409E+03  1.619215222E+03  4.750000000E+00  0.00000E+00  9.000E+00
      -5     1     1     2     0   503  5.831722672E+01 -1.627315589E+01 -5.033233962E+02  5.069740804E+02  4.750000000E+00  0.00000E+00  9.000E+00
      21     1     1     2   511   502  1.019533278E+01 -3.164441299E+00 -2.787967392E+01  2.985355452E+01  9.536743164E-07  0.00000E+00  9.000E+00
#rwgt            1           9   10.619533715989267                4      399181           0
</event>
<event>
      6   9999 -3.45752E-01  1.76839E+01 -1.00000E+00  1.64400E-01
      21    -1     0     0   512   502  0.000000000E+00  0.000000000E+00  3.932455718E+02  3.932455718E+02  0.000000000E+00  0.00000E+00  9.000E+00
      21    -1     0     0   502   503  0.000000000E+00  0.000000000E+00 -8.238741850E+02  8.238741850E+02  0.000000000E+00  0.00000E+00  9.000E+00
      25     1     1     2     0     0  3.515370859E+00 -1.765382993E+01 -7.906897010E+02  8.007117014E+02  1.250000399E+02  0.00000E+00  9.000E+00
       5     1     1     2   501     0 -2.508853692E+00 -2.910814838E+00  4.445543329E+00  7.555960916E+00  4.750000000E+00  0.00000E+00  9.000E+00
      -5     1     1     2     0   503 -3.313029163E+00  3.031837520E+00 -2.600908471E+01  2.681796391E+01  4.750000000E+00  0.00000E+00  9.000E+00
      21     1     1     2   512   501  2.306511996E+00  1.753280725E+01  3.816246292E+02  3.820341306E+02  5.394796609E-06  0.00000E+00  9.000E+00
#rwgt            1           9  -3.5201403440200489E-004           4      402987           0
</event>
<event>
      6   9999  3.45752E-01  2.39880E+01 -1.00000E+00  1.54408E-01
      21    -1     0     0   511   502  0.000000000E+00  0.000000000E+00  5.395502499E+01  5.395502499E+01  0.000000000E+00  0.00000E+00  9.000E+00
      21    -1     0     0   502   503  0.000000000E+00  0.000000000E+00 -1.413781991E+02  1.413781991E+02  0.000000000E+00  0.00000E+00  9.000E+00
      25     1     1     2     0     0 -2.016203491E+01 -9.672741165E+00 -6.194626665E+01  1.412872011E+02  1.249986547E+02  0.00000E+00  9.000E+00
       5     1     1     2   501     0 -1.892874263E+00 -3.377072174E-01  4.169208386E+00  6.606195403E+00  4.750000000E+00  0.00000E+00  9.000E+00
      -5     1     1     2     0   503 -1.007363281E+00  3.410862456E+00 -2.118978580E+01  2.200496048E+01  4.750000000E+00  0.00000E+00  9.000E+00
      21     1     1     2   511   501  2.306227245E+01  6.599585927E+00 -8.456330004E+00  2.543486706E+01  3.953724850E-07  0.00000E+00  9.000E+00
#rwgt            1           9   3.0979160314845013E-002           4      404946           0
</event>
<event>
      6   9999  3.45752E-01  1.67971E+01 -1.00000E+00  1.66220E-01
      21    -1     0     0   501   512  0.000000000E+00  0.000000000E+00  1.025864877E+01  1.025864877E+01  0.000000000E+00  0.00000E+00  9.000E+00
      21    -1     0     0   502   503  0.000000000E+00  0.000000000E+00 -7.878152935E+02  7.878152935E+02  0.000000000E+00  0.00000E+00  9.000E+00
      25     1     1     2     0     0 -1.100848365E+01  3.406314322E+00 -7.093015648E+02  7.203237689E+02  1.249993301E+02  0.00000E+00  9.000E+00
       5     1     1     2   501     0 -7.939525205E-01  9.034908189E-01 -6.308746227E+00  7.988080823E+00  4.750000000E+00  0.00000E+00  9.000E+00
      -5     1     1     2     0   503 -3.365888649E+00  2.905805454E+00 -4.646652151E+01  4.691985756E+01  4.750000000E+00  0.00000E+00  9.000E+00
      21     1     1     2   502   512  1.516832481E+01 -7.215610596E+00 -1.547981216E+01  2.284223497E+01  6.529361695E-07  0.00000E+00  9.000E+00
#rwgt            1           9   8.0781394401475384E-006           4      406272           0
</event>
<event>
      6   9999  3.45752E-01  7.86599E+01 -1.00000E+00  1.25038E-01
      21    -1     0     0   511   502  0.000000000E+00  0.000000000E+00  6.742784588E+01  6.742784588E+01  0.000000000E+00  0.00000E+00  9.000E+00
      21    -1     0     0   502   503  0.000000000E+00  0.000000000E+00 -1.124687431E+03  1.124687431E+03  0.000000000E+00  0.00000E+00  9.000E+00
      25     1     1     2     0     0 -2.378555523E+00 -2.521274220E+01 -4.440795899E+02  4.620311042E+02  1.249988769E+02  0.00000E+00  9.000E+00
       5     1     1     2   501     0  4.399732049E+01 -5.059194751E+01 -2.330217093E+01  7.113974300E+01  4.750000000E+00  0.00000E+00  9.000E+00
      -5     1     1     2     0   503 -4.387918577E+00  6.513681721E+00 -5.795347568E+02  5.796074350E+02  4.750000000E+00  0.00000E+00  9.000E+00
      21     1     1     2   511   501 -3.723084639E+01  6.929100799E+01 -1.034306778E+01  7.933699492E+01  1.385086779E-06  0.00000E+00  9.000E+00
#rwgt            1           9   67.800348674715622                4      407776           0
</event>
<event>
      6   9999  3.45752E-01  1.99521E+01 -1.00000E+00  1.60290E-01
      21    -1     0     0   501   502  0.000000000E+00  0.000000000E+00  1.872821223E+01  1.872821223E+01  0.000000000E+00  0.00000E+00  9.000E+00
      21    -1     0     0   502   512  0.000000000E+00  0.000000000E+00 -3.436379080E+03  3.436379080E+03  0.000000000E+00  0.00000E+00  9.000E+00
      25     1     1     2     0     0  2.806462502E+01 -4.473715177E+01 -5.106713095E+02  5.283861496E+02  1.249708000E+02  0.00000E+00  9.000E+00
       5     1     1     2   501     0  8.856141361E+00  1.457031259E+01 -1.333134037E+01  2.215879926E+01  4.750000000E+00  0.00000E+00  9.000E+00
      -5     1     1     2     0   503 -1.822982006E+01  3.714786069E+01 -7.457312653E+01  8.541664705E+01  4.750000000E+00  0.00000E+00  9.000E+00
      21     1     1     2   503   512 -1.869094632E+01 -6.981021506E+00 -2.819075091E+03  2.819145696E+03  6.823937920E-05  0.00000E+00  9.000E+00
#rwgt            1           9   4.3488457447604704E-002           4      408782           0
</event>
<event>
      6   9999 -3.45752E-01  1.84119E+01 -1.00000E+00  1.63002E-01
      21    -1     0     0   511   502  0.000000000E+00  0.000000000E+00  3.010381842E+01  3.010381842E+01  0.000000000E+00  0.00000E+00  9.000E+00
      21    -1     0     0   502   503  0.000000000E+00  0.000000000E+00 -1.260086178E+03  1.260086178E+03  0.000000000E+00  0.00000E+00  9.000E+00
      25     1     1     2     0     0 -5.852271940E+00 -1.222177056E+02 -6.242665546E+02  6.483095362E+02  1.250004274E+02  0.00000E+00  9.000E+00
       5     1     1     2   501     0  2.863801001E-02  5.409662773E-01  9.650653750E+00  1.076991562E+01  4.750000000E+00  0.00000E+00  9.000E+00
      -5     1     1     2     0   503 -1.241593953E+01  1.191638481E+02 -5.622695517E+02  5.749119841E+02  4.750000000E+00  0.00000E+00  9.000E+00
      21     1     1     2   511   501  1.823957346E+01  2.512891226E+00 -5.309690714E+01  5.619856057E+01  0.000000000E+00  0.00000E+00  9.000E+00
#rwgt            1           9  -6.9879539447101192E-005           4      410164           0
</event>
<event>
      6   9999  3.45752E-01  3.54274E+00 -1.00000E+00  2.59293E-01
      21    -1     0     0   501   512  0.000000000E+00  0.000000000E+00  1.800978262E+03  1.800978262E+03  0.000000000E+00  0.00000E+00  9.000E+00
      21    -1     0     0   502   503  0.000000000E+00  0.000000000E+00 -4.878575724E+00  4.878575724E+00  0.000000000E+00  0.00000E+00  9.000E+00
      25     1     1     2     0     0 -2.162561469E+00  1.084710281E+00  8.379893726E+02  8.472646738E+02  1.250015420E+02  0.00000E+00  9.000E+00
       5     1     1     2   501     0 -3.904941084E-01 -3.316262446E+00  8.656714753E+02  8.656909470E+02  4.750000000E+00  0.00000E+00  9.000E+00
      -5     1     1     2     0   503  2.694635007E+00 -1.308362683E+00  4.985848669E+01  5.017373881E+01  4.750000000E+00  0.00000E+00  9.000E+00
      21     1     1     2   502   512 -1.415794289E-01  3.539914847E+00  4.258035156E+01  4.272747806E+01  8.259061849E-07  0.00000E+00  9.000E+00
#rwgt            1           9   2.9839386782948632E-004           4      412571           0
</event>
<event>
      6   9999  3.45752E-01  7.69616E+00 -1.00000E+00  2.00027E-01
      21    -1     0     0   501   502  0.000000000E+00  0.000000000E+00  1.467113717E+01  1.467113717E+01  0.000000000E+00  0.00000E+00  9.000E+00
      21    -1     0     0   511   503  0.000000000E+00  0.000000000E+00 -1.266458628E+03  1.266458628E+03  0.000000000E+00  0.00000E+00  9.000E+00
      25     1     1     2     0     0 -3.637920284E+01 -5.479222211E+01 -7.919233329E+02  8.044212114E+02  1.250011445E+02  0.00000E+00  9.000E+00
       5     1     1     2   501     0  4.149639064E+01  5.862991973E+01 -1.541034750E+02  1.700878051E+02  4.750000000E+00  0.00000E+00  9.000E+00
      -5     1     1     2     0   503 -4.464546113E+00  3.830736113E+00 -3.775917009E+01  3.850875403E+01  4.750000000E+00  0.00000E+00  9.000E+00
      21     1     1     2   511   502 -6.526416893E-01 -7.668433736E+00 -2.680015124E+02  2.681119942E+02  6.607249480E-06  0.00000E+00  9.000E+00
#rwgt            1           9   3.8662631602912695E-002           4      418167           0
</event>
<event>
      6   9999  3.45752E-01  2.91409E+00 -1.00000E+00  2.80254E-01
      21    -1     0     0   501   512  0.000000000E+00  0.000000000E+00  8.405360238E+00  8.405360238E+00  0.000000000E+00  0.00000E+00  9.000E+00
      21    -1     0     0   502   503  0.000000000E+00  0.000000000E+00 -1.376392766E+03  1.376392766E+03  0.000000000E+00  0.00000E+00  9.000E+00
      25     1     1     2     0     0 -2.745112350E+01  5.747827770E+00 -6.179595686E+02  6.310987539E+02  1.250000281E+02  0.00000E+00  9.000E+00
       5     1     1     2   501     0  2.563426164E-01  5.327936096E-01 -3.502722931E+00  5.931369867E+00  4.750000000E+00  0.00000E+00  9.000E+00
      -5     1     1     2     0   503  2.679607001E+01 -9.167310173E+00 -7.406827198E+02  7.412391806E+02  4.750000000E+00  0.00000E+00  9.000E+00
      21     1     1     2   502   512  3.987108767E-01  2.886688794E+00 -5.842394469E+00  6.528821922E+00  1.192092896E-07  0.00000E+00  9.000E+00
#rwgt            1           9   4.0941506188354857E-004           4      421376           0
</event>
<event>
      6   9999  3.45752E-01  1.14605E+01 -1.00000E+00  1.81166E-01
      21    -1     0     0   501   502  0.000000000E+00  0.000000000E+00  3.460299950E+01  3.460299950E+01  0.000000000E+00  0.00000E+00  9.000E+00
      21    -1     0     0   502   511  0.000000000E+00  0.000000000E+00 -1.188039957E+03  1.188039957E+03  0.000000000E+00  0.00000E+00  9.000E+00
      25     1     1     2     0     0  8.280501520E+01 -1.282041851E+02 -6.230863107E+02  6.535711773E+02  1.250029982E+02  0.00000E+00  9.000E+00
       5     1     1     2   501     0 -4.408399159E-02  1.348068907E+00  4.455272088E+00  6.650652791E+00  4.750000000E+00  0.00000E+00  9.000E+00
      -5     1     1     2     0   503 -9.306677342E+01  1.318694279E+02 -4.800772639E+02  5.065053920E+02  4.750000000E+00  0.00000E+00  9.000E+00
      21     1     1     2   503   511  1.030584221E+01 -5.013311721E+00 -5.472865530E+01  5.591573472E+01  0.000000000E+00  0.00000E+00  9.000E+00
#rwgt            1           9   1.0054469159507549E-005           4      427473           0
</event>
<event>
      6   9999 -3.45752E-01  3.00049E+01 -1.00000E+00  1.47833E-01
      21    -1     0     0   502   503  0.000000000E+00  0.000000000E+00  2.286397486E+03  2.286397486E+03  0.000000000E+00  0.00000E+00  9.000E+00
      21    -1     0     0   512   502  0.000000000E+00  0.000000000E+00 -6.129634242E+01  6.129634242E+01  0.000000000E+00  0.00000E+00  9.000E+00
      25     1     1     2     0     0  2.534045699E+02  1.189828764E+02  1.740558565E+03  1.767353894E+03  1.249994655E+02  0.00000E+00  9.000E+00
       5     1     1     2   501     0 -3.375461530E+01 -7.563772493E+01  1.064317189E+02  1.349470740E+02  4.750000000E+00  0.00000E+00  9.000E+00
      -5     1     1     2     0   503 -1.898439007E+02 -3.989642122E+01  3.634259543E+02  4.119871573E+02  4.750000000E+00  0.00000E+00  9.000E+00
      21     1     1     2   512   501 -2.980605396E+01 -3.448730283E+00  1.468490584E+01  3.340570389E+01  1.011524364E-06  0.00000E+00  9.000E+00
#rwgt            1           9  -1.5037812593667014E-004           4      431000           0
</event>
<event>
      6   9999  3.45752E-01  2.05274E+01 -1.00000E+00  1.59352E-01
      21    -1     0     0   501   502  0.000000000E+00  0.000000000E+00  2.031788015E+01  2.031788015E+01  0.000000000E+00  0.00000E+00  9.000E+00
      21    -1     0     0   502   511  0.000000000E+00  0.000000000E+00 -1.469831583E+03  1.469831583E+03  0.000000000E+00  0.00000E+00  9.000E+00
      25     1     1     2     0     0  6.303040379E+00  3.573869374E+01 -8.050044985E+02  8.154591815E+02  1.249978057E+02  0.00000E+00  9.000E+00
       5     1     1     2   501     0 -5.246936893E+00 -6.882977716E+00  9.223646142E+00  1.351087995E+01  4.750000000E+00  0.00000E+00  9.000E+00
      -5     1     1     2     0   503 -5.556898323E+00 -4.888357910E+01 -1.707355970E+02  1.777461392E+02  4.750000000E+00  0.00000E+00  9.000E+00
      21     1     1     2   503   511  4.500794837E+00  2.002786307E+01 -4.829972535E+02  4.834332626E+02  7.629394531E-06  0.00000E+00  9.000E+00
#rwgt            1           9   7.3086897948592214E-004           4      433434           0
</event>
<event>
      6   9999  3.45752E-01  1.40297E+01 -1.00000E+00  1.72927E-01
      21    -1     0     0   501   502  0.000000000E+00  0.000000000E+00  1.812985554E+01  1.812985554E+01  0.000000000E+00  0.00000E+00  9.000E+00
      21    -1     0     0   502   512  0.000000000E+00  0.000000000E+00 -1.168842583E+03  1.168842583E+03  0.000000000E+00  0.00000E+00  9.000E+00
      25     1     1     2     0     0 -3.461732003E+01 -4.114921080E+01 -4.796849343E+02  4.986113735E+02  1.249961969E+02  0.00000E+00  9.000E+00
       5     1     1     2   501     0 -7.701087867E-01  9.162744067E-01  6.139480752E+00  7.854193163E+00  4.750000000E+00  0.00000E+00  9.000E+00
      -5     1     1     2     0   503  2.339199309E+01  4.750910861E+01 -5.526756538E+02  5.552271981E+02  4.750000000E+00  0.00000E+00  9.000E+00
      21     1     1     2   503   512  1.199543573E+01 -7.276172218E+00 -1.244916205E+02  1.252796740E+02  1.348699152E-06  0.00000E+00  9.000E+00
#rwgt            1           9   9.3542278695286636E-004           4      436161           0
</event>
<event>
      6   9999  3.45752E-01  5.96582E+01 -1.00000E+00  1.30808E-01
      21    -1     0     0   501   511  0.000000000E+00  0.000000000E+00  8.495282549E+01  8.495282549E+01  0.000000000E+00  0.00000E+00  9.000E+00
      21    -1     0     0   502   503  0.000000000E+00  0.000000000E+00 -8.570910016E+02  8.570910016E+02  0.000000000E+00  0.00000E+00  9.000E+00
      25     1     1     2     0     0  5.876054825E+01 -3.016606375E+01 -4.654021510E+02  4.864049880E+02  1.250114264E+02  0.00000E+00  9.000E+00
       5     1     1     2   501     0  5.585724718E+00 -1.487374912E+00 -2.197741950E+01  2.321598744E+01  4.750000000E+00  0.00000E+00  9.000E+00
      -5     1     1     2     0   503 -7.763917798E+00  1.274488067E+01 -3.463335014E+02  3.466874198E+02  4.750000000E+00  0.00000E+00  9.000E+00
      21     1     1     2   502   511 -5.658235517E+01  1.890855799E+01  6.157489577E+01  8.573543183E+01  1.348699152E-06  0.00000E+00  9.000E+00
#rwgt            1           9  0.56913891598667132                4      438828           0
</event>
<event>
      6   9999  3.45752E-01  2.41740E+01 -1.00000E+00  1.54171E-01
      21    -1     0     0   502   503  0.000000000E+00  0.000000000E+00  8.643958168E+01  8.643958168E+01  0.000000000E+00  0.00000E+00  9.000E+00
      21    -1     0     0   512   502  0.000000000E+00  0.000000000E+00 -2.519241987E+03  2.519241987E+03  0.000000000E+00  0.00000E+00  9.000E+00
      25     1     1     2     0     0  1.918160041E+02 -8.126359964E+01 -7.882451864E+02  8.248355622E+02  1.250043152E+02  0.00000E+00  9.000E+00
       5     1     1     2   501     0  2.268635752E+00 -1.992605358E+00  3.164120744E+01  3.213791675E+01  4.750000000E+00  0.00000E+00  9.000E+00
      -5     1     1     2     0   503 -1.825019780E+02  1.044746807E+02 -2.698194421E+02  3.421213596E+02  4.750000000E+00  0.00000E+00  9.000E+00
      21     1     1     2   512   501 -1.158266186E+01 -2.121847569E+01 -1.406378984E+03  1.406586730E+03  1.525878906E-05  0.00000E+00  9.000E+00
#rwgt            1           9   2.0968825391474073E-003           4      440065           0
</event>
<event>
      6   9999 -3.45752E-01  1.35598E+01 -1.00000E+00  1.74260E-01
      21    -1     0     0   501   502  0.000000000E+00  0.000000000E+00  3.949581605E+02  3.949581605E+02  0.000000000E+00  0.00000E+00  9.000E+00
      21    -1     0     0   502   511  0.000000000E+00  0.000000000E+00 -1.237922390E+02  1.237922390E+02  0.000000000E+00  0.00000E+00  9.000E+00
      25     1     1     2     0     0  2.262241022E+01 -1.223054480E+02 -3.399906626E+01  1.795806965E+02  1.249915757E+02  0.00000E+00  9.000E+00
       5     1     1     2   501     0 -6.782867272E-01  5.253405494E-01  6.227187657E+01  6.245866767E+01  4.750000000E+00  0.00000E+00  9.000E+00
      -5     1     1     2     0   503 -2.161813807E+01  1.082242098E+02  2.378390308E+02  2.622399484E+02  4.750000000E+00  0.00000E+00  9.000E+00
      21     1     1     2   503   511 -3.259854228E-01  1.355589761E+01  5.054080408E+00  1.447108687E+01  1.685873940E-07  0.00000E+00  9.000E+00
#rwgt            1           9  -9.4603392363999585E-004           4      442618           0
</event>
<event>
      6   9999  3.45752E-01  1.95503E+01 -1.00000E+00  1.60968E-01
      21    -1     0     0   512   503  0.000000000E+00  0.000000000E+00  1.736328120E+02  1.736328120E+02  0.000000000E+00  0.00000E+00  9.000E+00
      21    -1     0     0   501   502  0.000000000E+00  0.000000000E+00 -7.843554902E+02  7.843554902E+02  0.000000000E+00  0.00000E+00  9.000E+00
      25     1     1     2     0     0 -2.458655280E+01 -1.389897876E+01 -4.940201704E+02  5.103706512E+02  1.249983704E+02  0.00000E+00  9.000E+00
       5     1     1     2   501     0  1.556370804E+01  1.172426452E+01 -2.547386791E+02  2.555269937E+02  4.750000000E+00  0.00000E+00  9.000E+00
      -5     1     1     2     0   503 -9.972160829E+00 -2.451520521E+00 -2.523382398E+01  2.765433631E+01  4.750000000E+00  0.00000E+00  9.000E+00
      21     1     1     2   512   502  1.899500559E+01  4.626234766E+00  1.632699953E+02  1.644363210E+02  4.264961200E-06  0.00000E+00  9.000E+00
#rwgt            1           9   1.0767182424297301E-003           4      445348           0
</event>
<event>
      6   9999  3.45752E-01  8.03292E+00 -1.00000E+00  1.97804E-01
      21    -1     0     0   501   511  0.000000000E+00  0.000000000E+00  2.780496874E+01  2.780496874E+01  0.000000000E+00  0.00000E+00  9.000E+00
      21    -1     0     0   502   503  0.000000000E+00  0.000000000E+00 -8.081247904E+02  8.081247904E+02  0.000000000E+00  0.00000E+00  9.000E+00
      25     1     1     2     0     0 -3.118533514E+00  1.141356667E+01 -7.235776200E+02  7.343903103E+02  1.249982440E+02  0.00000E+00  9.000E+00
       5     1     1     2   501     0 -1.908845080E+00 -1.060011865E+00  3.789905677E+00  6.457027159E+00  4.750000000E+00  0.00000E+00  9.000E+00
      -5     1     1     2     0   503 -1.859889283E+00 -6.219153940E+00 -7.665148523E+01  7.707236698E+01  4.750000000E+00  0.00000E+00  9.000E+00
      21     1     1     2   502   511  6.887267877E+00 -4.134400867E+00  1.611937783E+01  1.801005472E+01  8.596304120E-07  0.00000E+00  9.000E+00
#rwgt            1           9   6.7257507920713651E-003           4      446694           0
</event>
<event>
      6   9999  3.45752E-01  6.06412E+01 -1.00000E+00  1.30452E-01
      21    -1     0     0   501   502  0.000000000E+00  0.000000000E+00  4.162976499E+01  4.162976499E+01  0.000000000E+00  0.00000E+00  9.000E+00
      21    -1     0     0   502   512  0.000000000E+00  0.000000000E+00 -1.832572863E+03  1.832572863E+03  0.000000000E+00  0.00000E+00  9.000E+00
      25     1     1     2     0     0 -8.953578116E+01  9.846573190E+01 -1.091249720E+03  1.106419392E+03  1.250030547E+02  0.00000E+00  9.000E+00
       5     1     1     2   501     0 -7.997340309E+00 -1.595752200E+00  8.568964913E+00  1.274729527E+01  4.750000000E+00  0.00000E+00  9.000E+00
      -5     1     1     2     0   503  3.730661756E+01 -8.978980016E+01 -8.620629993E+01  1.300310754E+02  4.750000000E+00  0.00000E+00  9.000E+00
      21     1     1     2   503   512  6.022650390E+01 -7.080179544E+00 -6.220560428E+02  6.250048649E+02  0.000000000E+00  0.00000E+00  9.000E+00
#rwgt            1           9   4.6945177351212267E-005           4      449440           0
</event>
<event>
      6   9999 -3.45752E-01  6.61291E+00 -1.00000E+00  2.08338E-01
      21    -1     0     0   501   511  0.000000000E+00  0.000000000E+00  5.858515877E+01  5.858515877E+01  0.000000000E+00  0.00000E+00  9.000E+00
      21    -1     0     0   502   503  0.000000000E+00  0.000000000E+00 -9.159587563E+02  9.159587563E+02  0.000000000E+00  0.00000E+00  9.000E+00
      25     1     1     2     0     0  4.586888455E-01  6.089156989E-02 -8.615769155E+02  8.705965704E+02  1.249935713E+02  0.00000E+00  9.000E+00
       5     1     1     2   501     0 -4.130575691E+00 -5.266140693E+00  1.213019180E+01  1.464574841E+01  4.750000000E+00  0.00000E+00  9.000E+00
      -5     1     1     2     0   503 -1.472517493E+00  1.050050489E+00 -4.821106132E+01  4.847824097E+01  4.750000000E+00  0.00000E+00  9.000E+00
      21     1     1     2   502   511  5.144404339E+00  4.155198635E+00  4.028418755E+01  4.082335530E+01  1.066240300E-06  0.00000E+00  9.000E+00
#rwgt            1           9 -0.34596361916742302                4      450334           0
</event>
<event>
      6   9999  3.45752E-01  1.74196E+01 -1.00000E+00  1.64929E-01
      21    -1     0     0   501   502  0.000000000E+00  0.000000000E+00  7.168632309E+01  7.168632309E+01  0.000000000E+00  0.00000E+00  9.000E+00
      21    -1     0     0   512   503  0.000000000E+00  0.000000000E+00 -2.664511711E+02  2.664511711E+02  0.000000000E+00  0.00000E+00  9.000E+00
      25     1     1     2     0     0  2.523075057E+01 -9.614435323E+00 -7.373301003E+01  1.476183476E+02  1.250023666E+02  0.00000E+00  9.000E+00
       5     1     1     2   501     0 -3.329670022E+00  5.001703331E-01  2.678200171E+01  2.740757173E+01  4.750000000E+00  0.00000E+00  9.000E+00
      -5     1     1     2     0   503 -3.863967859E+01  4.291195718E+00 -4.878245368E+01  6.255980666E+01  4.750000000E+00  0.00000E+00  9.000E+00
      21     1     1     2   512   502  1.673859804E+01  4.823069272E+00 -9.903138603E+01  1.005517682E+02  1.348699152E-06  0.00000E+00  9.000E+00
#rwgt            1           9   1.4605881836452431E-002           4      453995           0
</event>
<event>
      6   9999 -3.45752E-01  1.45092E+01 -1.00000E+00  1.71633E-01
      21    -1     0     0   501   502  0.000000000E+00  0.000000000E+00  1.557475797E+01  1.557475797E+01  0.000000000E+00  0.00000E+00  9.000E+00
      21    -1     0     0   511   503  0.000000000E+00  0.000000000E+00 -1.490154547E+03  1.490154547E+03  0.000000000E+00  0.00000E+00  9.000E+00
      25     1     1     2     0     0  7.291241283E+01  6.676254501E+01 -5.898667320E+02  6.110162914E+02  1.249987579E+02  0.00000E+00  9.000E+00
       5     1     1     2   501     0 -6.067130615E+01 -3.225065654E+01 -3.096364965E+02  3.172040900E+02  4.750000000E+00  0.00000E+00  9.000E+00
      -5     1     1     2     0   503 -2.541520797E+01 -2.843251676E+01 -4.128112195E+02  4.145961966E+02  4.750000000E+00  0.00000E+00  9.000E+00
      21     1     1     2   511   502  1.317410130E+01 -6.079371703E+00 -1.622653410E+02  1.629127270E+02  2.697398305E-06  0.00000E+00  9.000E+00
#rwgt            1           9  -8.0909511141251961E-003           4      456499           0
</event>
<event>
      6   9999  3.45752E-01  7.70393E+00 -1.00000E+00  1.99974E-01
      21    -1     0     0   501   502  0.000000000E+00  0.000000000E+00  7.757418789E+01  7.757418789E+01  0.000000000E+00  0.00000E+00  9.000E+00
      21    -1     0     0   502   512  0.000000000E+00  0.000000000E+00 -1.467327479E+02  1.467327479E+02  0.000000000E+00  0.00000E+00  9.000E+00
      25     1     1     2     0     0 -3.441522245E+00 -3.301712673E+00 -6.940523205E+01  1.430565382E+02  1.250013660E+02  0.00000E+00  9.000E+00
       5     1     1     2   501     0  1.066361551E+00 -3.120013616E+00  3.807935867E+01  3.851586256E+01  4.750000000E+00  0.00000E+00  9.000E+00
      -5     1     1     2     0   503 -1.005011661E+00 -5.010590829E-01 -8.455970634E-01  4.953649467E+00  4.750000000E+00  0.00000E+00  9.000E+00
      21     1     1     2   503   512  3.380172355E+00  6.922785372E+00 -3.698708953E+01  3.778088557E+01  6.743495762E-07  0.00000E+00  9.000E+00
#rwgt            1           9   1.9081989220077668E-003           4      458750           0
</event>
<event>
      6   9999  3.45752E-01  1.17439E+01 -1.00000E+00  1.80128E-01
      21    -1     0     0   501   502  0.000000000E+00  0.000000000E+00  7.623168534E+00  7.623168534E+00  0.000000000E+00  0.00000E+00  9.000E+00
      21    -1     0     0   511   503  0.000000000E+00  0.000000000E+00 -1.420050998E+03  1.420050998E+03  0.000000000E+00  0.00000E+00  9.000E+00
      25     1     1     2     0     0  1.020523011E+01  2.002054795E+00 -7.103711559E+02  7.213605186E+02  1.250026553E+02  0.00000E+00  9.000E+00
       5     1     1     2   501     0  1.015193791E+00 -4.802553844E-01 -1.861517645E+00  5.223888552E+00  4.750000000E+00  0.00000E+00  9.000E+00
      -5     1     1     2     0   503  5.210183343E-01 -1.282160997E+00 -1.501796834E+01  1.581193441E+01  4.750000000E+00  0.00000E+00  9.000E+00
      21     1     1     2   511   502 -1.174144224E+01 -2.396384130E-01 -6.851771872E+02  6.852778245E+02  0.000000000E+00  0.00000E+00  9.000E+00
#rwgt            1           9   1.5436502030324469E-003           4      461598           0
</event>
<event>
      6   9999  3.45752E-01  3.39431E+01 -1.00000E+00  1.44451E-01
      21    -1     0     0   501   502  0.000000000E+00  0.000000000E+00  2.501923928E+01  2.501923928E+01  0.000000000E+00  0.00000E+00  9.000E+00
       2    -1     0     0   502     0  0.000000000E+00  0.000000000E+00 -1.187513901E+03  1.187513901E+03  0.000000000E+00  0.00000E+00  9.000E+00
      25     1     1     2     0     0  2.636054882E+01 -1.827418280E+01 -3.091590018E+02  3.350068606E+02  1.249859352E+02  0.00000E+00  9.000E+00
       5     1     1     2   501     0  3.940892618E+00  1.337210245E+00  5.816355610E+00  8.585526101E+00  4.750000000E+00  0.00000E+00  9.000E+00
      -5     1     1     2     0   503  3.499324437E+00  2.004254671E+01 -1.942474191E+01  2.852774173E+01  4.750000000E+00  0.00000E+00  9.000E+00
       2     1     1     2   503     0 -3.380076587E+01 -3.105574158E+00 -8.397272739E+02  8.404130121E+02  0.000000000E+00  0.00000E+00  9.000E+00
#rwgt            1           9   2.2582429357424903E-002           4      463256           0
</event>
<event>
      6   9999  3.45752E-01  4.93100E+00 -1.00000E+00  2.30429E-01
      21    -1     0     0   511   502  0.000000000E+00  0.000000000E+00  7.867638872E+01  7.867638872E+01  0.000000000E+00  0.00000E+00  9.000E+00
      21    -1     0     0   502   503  0.000000000E+00  0.000000000E+00 -1.344718440E+03  1.344718440E+03  0.000000000E+00  0.00000E+00  9.000E+00
      25     1     1     2     0     0 -5.472619855E+00 -4.291427492E+01 -1.369108821E+02  1.903755924E+02  1.250067677E+02  0.00000E+00  9.000E+00
       5     1     1     2   501     0 -4.695634418E+00  5.954912963E+00  2.572479602E+01  2.723669586E+01  4.750000000E+00  0.00000E+00  9.000E+00
      -5     1     1     2     0   503  5.250876586E+00  3.732558455E+01 -1.179771857E+03  1.180383398E+03  4.750000000E+00  0.00000E+00  9.000E+00
      21     1     1     2   511   501  4.917377687E+00 -3.662225840E-01  2.491589197E+01  2.539914162E+01  7.539457465E-07  0.00000E+00  9.000E+00
#rwgt            1           9   2.5760536432154216E-002           4      464300           0
</event>
<event>
      6   9999  3.45752E-01  1.58405E+01 -1.00000E+00  1.68345E-01
      21    -1     0     0   501   502  0.000000000E+00  0.000000000E+00  1.110884878E+03  1.110884878E+03  0.000000000E+00  0.00000E+00  9.000E+00
      21    -1     0     0   512   503  0.000000000E+00  0.000000000E+00 -8.679097944E+01  8.679097944E+01  0.000000000E+00  0.00000E+00  9.000E+00
      25     1     1     2     0     0 -1.138236238E+01  1.165145881E+01 -3.104227169E+01  1.298199578E+02  1.249971366E+02  0.00000E+00  9.000E+00
       5     1     1     2   501     0  7.827812938E+00 -9.538004437E-01  1.036053389E+03  1.036094287E+03  4.750000000E+00  0.00000E+00  9.000E+00
      -5     1     1     2     0   503 -8.059815365E+00  7.389900700E-02  9.016431873E+00  1.299325319E+01  4.750000000E+00  0.00000E+00  9.000E+00
      21     1     1     2   512   502  1.161436481E+01 -1.077155738E+01  1.006634915E+01  1.876835911E+01  2.920019320E-07  0.00000E+00  9.000E+00
#rwgt            1           9   1.4891068292994666E-003           4      470272           0
</event>
<event>
      6   9999  3.45752E-01  6.35561E+00 -1.00000E+00  2.10633E-01
      21    -1     0     0   502   511  0.000000000E+00  0.000000000E+00  9.438972075E+00  9.438972075E+00  0.000000000E+00  0.00000E+00  9.000E+00
      21    -1     0     0   501   502  0.000000000E+00  0.000000000E+00 -7.445431896E+02  7.445431896E+02  0.000000000E+00  0.00000E+00  9.000E+00
      25     1     1     2     0     0  2.404369056E+01 -6.476932631E-01 -5.338575655E+02  5.488237788E+02  1.250004857E+02  0.00000E+00  9.000E+00
       5     1     1     2   501     0 -4.034655072E+00 -2.936385798E+00 -5.944008126E+01  5.983800267E+01  4.750000000E+00  0.00000E+00  9.000E+00
      -5     1     1     2     0   503 -1.386732839E+01  5.219089532E+00 -1.354175344E+02  1.363085207E+02  4.750000000E+00  0.00000E+00  9.000E+00
      21     1     1     2   503   511 -6.141707097E+00 -1.635010471E+00 -6.389036348E+00  9.011859451E+00  1.192092896E-07  0.00000E+00  9.000E+00
#rwgt            1           9   8.1940222648991493E-002           4      473732           0
</event>
<event>
      6   9999 -3.45752E-01  5.15342E+00 -1.00000E+00  2.23693E-01
      -1    -1     0     0     0   502  0.000000000E+00  0.000000000E+00  1.688148198E+02  1.688148198E+02  0.000000000E+00  0.00000E+00  9.000E+00
      21    -1     0     0   502   503  0.000000000E+00  0.000000000E+00 -8.318503465E+02  8.318503465E+02  0.000000000E+00  0.00000E+00  9.000E+00
      25     1     1     2     0     0  6.981945262E+00  8.959942693E-02 -8.001720329E+02  8.099071886E+02  1.250024655E+02  0.00000E+00  9.000E+00
       5     1     1     2   501     0 -1.868889801E+00 -5.456297237E-01  3.363957886E+00  6.137521775E+00  4.750000000E+00  0.00000E+00  9.000E+00
      -5     1     1     2     0   503 -1.005857529E+01  1.905003272E+00 -2.412741659E+01  2.663641691E+01  4.750000000E+00  0.00000E+00  9.000E+00
      -1     1     1     2     0   501  4.945519832E+00 -1.448972975E+00  1.578999649E+02  1.579840391E+02  3.303624740E-06  0.00000E+00  9.000E+00
#rwgt            1           9  -1.8564322752285935E-003           4      476734           0
</event>
<event>
      6   9999  3.45752E-01  2.93166E+01 -1.00000E+00  1.48488E-01
      21    -1     0     0   502   511  0.000000000E+00  0.000000000E+00  2.195881186E+02  2.195881186E+02  0.000000000E+00  0.00000E+00  9.000E+00
      21    -1     0     0   501   502  0.000000000E+00  0.000000000E+00 -6.951214162E+02  6.951214162E+02  0.000000000E+00  0.00000E+00  9.000E+00
      25     1     1     2     0     0 -1.810427297E+01 -2.072881576E+01 -5.489880770E+02  5.637119365E+02  1.250031607E+02  0.00000E+00  9.000E+00
       5     1     1     2   501     0 -2.194933495E+01 -7.805678562E+00 -7.073213886E+01  7.462104187E+01  4.750000000E+00  0.00000E+00  9.000E+00
      -5     1     1     2     0   503  1.883764507E+01  8.302148310E+00 -6.334960854E+01  6.677962219E+01  4.750000000E+00  0.00000E+00  9.000E+00
      21     1     1     2   503   511  2.121596284E+01  2.023234601E+01  2.075365268E+02  2.095969343E+02  0.000000000E+00  0.00000E+00  9.000E+00
#rwgt            1           9   8005.3165371718205                4      481127           0
</event>
<event>
      6   9999  3.45752E-01  3.39928E+01 -1.00000E+00  1.44411E-01
      21    -1     0     0   501   502  0.000000000E+00  0.000000000E+00  3.896075616E+01  3.896075616E+01  0.000000000E+00  0.00000E+00  9.000E+00
      21    -1     0     0   512   503  0.000000000E+00  0.000000000E+00 -1.640112257E+03  1.640112257E+03  0.000000000E+00  0.00000E+00  9.000E+00
      25     1     1     2     0     0 -4.023892267E+01  6.537743813E+01 -3.008838108E+02  3.347358396E+02  1.249945376E+02  0.00000E+00  9.000E+00
       5     1     1     2   501     0 -1.667995528E+00  4.208617985E+00  1.974389372E+01  2.080573271E+01  4.750000000E+00  0.00000E+00  9.000E+00
      -5     1     1     2     0   503  5.011453793E+01 -3.659900606E+01 -8.966080293E+02  8.987655283E+02  4.750000000E+00  0.00000E+00  9.000E+00
      21     1     1     2   512   502 -8.207619732E+00 -3.298705006E+01 -4.234035548E+02  4.247659129E+02  5.394796609E-06  0.00000E+00  9.000E+00
#rwgt            1           9   3.4649460076135743E-003           4      482005           0
</event>
<event>
      6   9999  3.45752E-01  5.64314E+00 -1.00000E+00  2.17836E-01
      21    -1     0     0   502   503  0.000000000E+00  0.000000000E+00  7.025560279E+00  7.025560279E+00  0.000000000E+00  0.00000E+00  9.000E+00
      21    -1     0     0   501   511  0.000000000E+00  0.000000000E+00 -7.291935895E+02  7.291935895E+02  0.000000000E+00  0.00000E+00  9.000E+00
      25     1     1     2     0     0 -8.000245374E+00  4.420265871E-01 -6.370255128E+02  6.492230409E+02  1.249994141E+02  0.00000E+00  9.000E+00
       5     1     1     2   501     0  3.558608455E+00 -4.662923349E-01 -2.922395334E+01  2.982420278E+01  4.750000000E+00  0.00000E+00  9.000E+00
      -5     1     1     2     0   503 -7.576516752E-02  3.406291088E+00 -2.092185822E+01  2.172314919E+01  4.750000000E+00  0.00000E+00  9.000E+00
      21     1     1     2   502   511  4.517402086E+00 -3.382025340E+00 -3.499670483E+01  3.544875690E+01  4.768371582E-07  0.00000E+00  9.000E+00
#rwgt            1           9  0.31059497628360150                4      484153           0
</event>
<event>
      6   9999  3.45752E-01  2.09742E+01 -1.00000E+00  1.58650E-01
      21    -1     0     0   512   502  0.000000000E+00  0.000000000E+00  1.308879033E+01  1.308879033E+01  0.000000000E+00  0.00000E+00  9.000E+00
       1    -1     0     0   501     0  0.000000000E+00  0.000000000E+00 -9.385151450E+02  9.385151450E+02  0.000000000E+00  0.00000E+00  9.000E+00
      25     1     1     2     0     0 -4.010900655E+01  1.991383962E+01 -4.169826099E+02  4.376116462E+02  1.249966500E+02  0.00000E+00  9.000E+00
       5     1     1     2   501     0  3.071222387E+01 -1.169545938E+01 -2.789463947E+02  2.809157847E+02  4.750000000E+00  0.00000E+00  9.000E+00
      -5     1     1     2     0   502  1.376916444E+01  1.229502530E+01 -1.302300699E+02  1.316175943E+02  4.750000000E+00  0.00000E+00  9.000E+00
       1     1     1     2   512     0 -4.372381761E+00 -2.051340554E+01 -9.926728021E+01  1.014589102E+02  1.348699152E-06  0.00000E+00  9.000E+00
#rwgt            1           1   4.6109596867593405E-006           4      487480           0
</event>
<event>
      6   9999  3.45752E-01  1.20248E+01 -1.00000E+00  1.79135E-01
      21    -1     0     0   501   511  0.000000000E+00  0.000000000E+00  1.449897328E+02  1.449897328E+02  0.000000000E+00  0.00000E+00  9.000E+00
      21    -1     0     0   502   503  0.000000000E+00  0.000000000E+00 -1.711662017E+03  1.711662017E+03  0.000000000E+00  0.00000E+00  9.000E+00
      25     1     1     2     0     0  2.405079679E+01  1.147305978E+01 -1.598501584E+03  1.603603545E+03  1.250077681E+02  0.00000E+00  9.000E+00
       5     1     1     2   501     0 -1.964069407E+00 -5.953546495E+00  2.317084447E+01  2.446942619E+01  4.750000000E+00  0.00000E+00  9.000E+00
      -5     1     1     2     0   503 -1.182724358E+01  7.525036392E-01 -1.092828055E+02  1.100261062E+02  4.750000000E+00  0.00000E+00  9.000E+00
      21     1     1     2   502   511 -1.025948380E+01 -6.272016924E+00  1.179412609E+02  1.185526728E+02  5.560829062E-06  0.00000E+00  9.000E+00
#rwgt            1           9   6.2662849113709642                4      488214           0
</event>
<event>
      6   9999  3.45752E-01  1.84215E+01 -1.00000E+00  1.62984E-01
      21    -1     0     0   502   503  0.000000000E+00  0.000000000E+00  6.566026286E+01  6.566026286E+01  0.000000000E+00  0.00000E+00  9.000E+00
      21    -1     0     0   512   502  0.000000000E+00  0.000000000E+00 -1.625666530E+03  1.625666530E+03  0.000000000E+00  0.00000E+00  9.000E+00
      25     1     1     2     0     0 -2.262982535E+02 -7.484585291E+01 -3.102718770E+02  4.107386258E+02  1.249991194E+02  0.00000E+00  9.000E+00
       5     1     1     2   501     0  2.108786836E+02  6.032150885E+01 -1.075881141E+03  1.098021537E+03  4.750000000E+00  0.00000E+00  9.000E+00
      -5     1     1     2     0   503  7.573121893E+00 -2.142541382E+00 -1.599668641E+00  9.330814463E+00  4.750000000E+00  0.00000E+00  9.000E+00
      21     1     1     2   512   501  7.846447975E+00  1.666688545E+01 -1.722535809E+02  1.732358160E+02  1.907348633E-06  0.00000E+00  9.000E+00
#rwgt            1           9   2.6190310969138511E-004           4      491256           0
</event>
<event>
      6   9999  3.45752E-01  1.09429E+01 -1.00000E+00  1.83164E-01
      21    -1     0     0   501   502  0.000000000E+00  0.000000000E+00  2.418454028E+01  2.418454028E+01  0.000000000E+00  0.00000E+00  9.000E+00
      21    -1     0     0   511   503  0.000000000E+00  0.000000000E+00 -1.110082477E+03  1.110082477E+03  0.000000000E+00  0.00000E+00  9.000E+00
      25     1     1     2     0     0 -4.686860061E+01 -2.297980513E+01 -2.480204917E+02  2.825944738E+02  1.249829394E+02  0.00000E+00  9.000E+00
       5     1     1     2   501     0 -3.676326820E+01 -1.271381433E+01 -1.674433942E+02  1.719681126E+02  4.750000000E+00  0.00000E+00  9.000E+00
      -5     1     1     2     0   503  9.455240227E+01  3.499497864E+01 -6.040390963E+02  6.124137471E+02  4.750000000E+00  0.00000E+00  9.000E+00
      21     1     1     2   511   502 -1.092053345E+01  6.986408323E-01 -6.639495476E+01  6.729068411E+01  9.536743164E-07  0.00000E+00  9.000E+00
#rwgt            1           9   5.7381241282151183E-004           4      495091           0
</event>
<event>
      6   9999  3.45752E-01  9.29927E+00 -1.00000E+00  1.90580E-01
      21    -1     0     0   512   502  0.000000000E+00  0.000000000E+00  1.836030910E+02  1.836030910E+02  0.000000000E+00  0.00000E+00  9.000E+00
      21    -1     0     0   502   503  0.000000000E+00  0.000000000E+00 -8.062014253E+02  8.062014253E+02  0.000000000E+00  0.00000E+00  9.000E+00
      25     1     1     2     0     0  9.744705673E+00  8.707311509E+00 -7.662949722E+02  7.765330587E+02  1.249993212E+02  0.00000E+00  9.000E+00
       5     1     1     2   501     0  1.734933228E+00 -1.656672761E+00  2.309167253E+00  5.800802647E+00  4.750000000E+00  0.00000E+00  9.000E+00
      -5     1     1     2     0   503 -2.192583058E+00 -7.527048837E+00 -3.227903019E+01  3.355535985E+01  4.750000000E+00  0.00000E+00  9.000E+00
      21     1     1     2   512   501 -9.287055844E+00  4.764100891E-01  1.736665008E+02  1.739152951E+02  1.907348633E-06  0.00000E+00  9.000E+00
#rwgt            1           9   8.7410214846952022E-003           4      498087           0
</event>
<event>
      6   9999 -3.45752E-01  1.55397E+01 -1.00000E+00  1.69052E-01
      21    -1     0     0   501   511  0.000000000E+00  0.000000000E+00  1.030330794E+01  1.030330794E+01  0.000000000E+00  0.00000E+00  9.000E+00
      21    -1     0     0   502   503  0.000000000E+00  0.000000000E+00 -3.638638595E+03  3.638638595E+03  0.000000000E+00  0.00000E+00  9.000E+00
      25     1     1     2     0     0  1.709243103E+01 -1.616017906E+01 -3.413697666E+03  3.416066669E+03  1.250057222E+02  0.00000E+00  9.000E+00
       5     1     1     2   501     0  5.861598247E-01  1.269983020E-01 -5.625353415E+00  7.386935288E+00  4.750000000E+00  0.00000E+00  9.000E+00
      -5     1     1     2     0   503 -7.901292843E+00  2.811155520E+01 -2.078065099E+02  2.099018771E+02  4.750000000E+00  0.00000E+00  9.000E+00
      21     1     1     2   502   511 -9.777298011E+00 -1.207837445E+01 -1.205757948E+00  1.558642159E+01  2.376816955E-06  0.00000E+00  9.000E+00
#rwgt            1           9  -6.8165760605658540E-003           4      500373           0
</event>
<event>
      6   9999  3.45752E-01  4.90143E+00 -1.00000E+00  2.30894E-01
      21    -1     0     0   501   502  0.000000000E+00  0.000000000E+00  8.944619176E+00  8.944619176E+00  0.000000000E+00  0.00000E+00  9.000E+00
      21    -1     0     0   502   512  0.000000000E+00  0.000000000E+00 -2.690640243E+03  2.690640243E+03  0.000000000E+00  0.00000E+00  9.000E+00
      25     1     1     2     0     0 -3.766667254E+01  7.463325423E+01 -1.656582369E+03  1.663393831E+03  1.249999568E+02  0.00000E+00  9.000E+00
       5     1     1     2   501     0 -2.542503567E+00  1.158306574E+00  1.714705214E+00  5.771370070E+00  4.750000000E+00  0.00000E+00  9.000E+00
      -5     1     1     2     0   503  3.763110405E+01 -7.162292199E+01 -9.720842583E+02  9.754569754E+02  4.750000000E+00  0.00000E+00  9.000E+00
      21     1     1     2   503   512  2.578072058E+00 -4.168638812E+00 -5.474370112E+01  5.496268568E+01  9.536743164E-07  0.00000E+00  9.000E+00
#rwgt            1           9  0.57761477542009132                4      502485           0
</event>
<event>
      6   9999  3.45752E-01  1.36965E+01 -1.00000E+00  1.73866E-01
      21    -1     0     0   501   511  0.000000000E+00  0.000000000E+00  1.743274601E+01  1.743274601E+01  0.000000000E+00  0.00000E+00  9.000E+00
      21    -1     0     0   502   503  0.000000000E+00  0.000000000E+00 -1.419840864E+03  1.419840864E+03  0.000000000E+00  0.00000E+00  9.000E+00
      25     1     1     2     0     0 -3.842186807E+00 -4.067179961E+01 -5.268746337E+02  5.430371916E+02  1.249942163E+02  0.00000E+00  9.000E+00
       5     1     1     2   501     0  1.582619676E+00 -1.550907889E+00 -4.564506706E-02  5.241620340E+00  4.750000000E+00  0.00000E+00  9.000E+00
      -5     1     1     2     0   503  5.615461669E+00  2.894371860E+01 -8.747699097E+02  8.752795152E+02  4.750000000E+00  0.00000E+00  9.000E+00
      21     1     1     2   502   511 -3.355894537E+00  1.327898890E+01 -7.179299547E-01  1.371528337E+01  9.347435586E-07  0.00000E+00  9.000E+00
#rwgt            1           9   7.3840524108948055E-004           4      507320           0
</event>
<event>
      6   9999  3.45752E-01  1.13283E+01 -1.00000E+00  1.81663E-01
       2    -1     0     0   501     0  0.000000000E+00  0.000000000E+00  1.870731023E+02  1.870731023E+02  0.000000000E+00  0.00000E+00  9.000E+00
      21    -1     0     0   502   503  0.000000000E+00  0.000000000E+00 -9.850601240E+02  9.850601240E+02  0.000000000E+00  0.00000E+00  9.000E+00
      25     1     1     2     0     0 -4.239077851E-01  1.284696891E+01 -2.875149732E+02  3.137754066E+02  1.249996867E+02  0.00000E+00  9.000E+00
       5     1     1     2   501     0 -4.053176993E+00  1.532596576E+00  5.116813696E+00  8.217139308E+00  4.750000000E+00  0.00000E+00  9.000E+00
      -5     1     1     2     0   503 -6.202976535E+00 -1.060251898E+01 -6.826093851E+02  6.827364246E+02  4.750000000E+00  0.00000E+00  9.000E+00
       2     1     1     2   502     0  1.068006131E+01 -3.777046512E+00  1.670205229E+02  1.674042558E+02  4.264961200E-06  0.00000E+00  9.000E+00
#rwgt            1           9   6.5496627318843360E-006           4      509650           0
</event>
<event>
      6   9999  3.45752E-01  1.06938E+01 -1.00000E+00  1.84177E-01
      21    -1     0     0   511   502  0.000000000E+00  0.000000000E+00  1.468270217E+02  1.468270217E+02  0.000000000E+00  0.00000E+00  9.000E+00
      21    -1     0     0   502   503  0.000000000E+00  0.000000000E+00 -4.992921548E+01  4.992921548E+01  0.000000000E+00  0.00000E+00  9.000E+00
      25     1     1     2     0     0 -5.756323736E+00 -4.001729088E+00  4.378279311E+01  1.326314928E+02  1.250001233E+02  0.00000E+00  9.000E+00
       5     1     1     2   501     0  3.295902354E-01  2.720098477E-01  5.402586876E+00  7.206459882E+00  4.750000000E+00  0.00000E+00  9.000E+00
      -5     1     1     2     0   503  1.096104834E+01  1.288002741E+01  1.719682709E+01  2.458318630E+01  4.750000000E+00  0.00000E+00  9.000E+00
      21     1     1     2   511   501 -5.534314842E+00 -9.150308171E+00  3.051559917E+01  3.233509816E+01  3.371747881E-07  0.00000E+00  9.000E+00
#rwgt            1           9   3.4724130418070653E-004           4      512053           0
</event>
<event>
      6   9999  3.45752E-01  4.39450E+01 -1.00000E+00  1.37857E-01
      21    -1     0     0   501   502  0.000000000E+00  0.000000000E+00  1.073032200E+01  1.073032200E+01  0.000000000E+00  0.00000E+00  9.000E+00
      21    -1     0     0   502   512  0.000000000E+00  0.000000000E+00 -2.250730330E+03  2.250730330E+03  0.000000000E+00  0.00000E+00  9.000E+00
      25     1     1     2     0     0  1.756526849E+01  1.597318390E+01 -4.394332550E+02  4.574824237E+02  1.249996045E+02  0.00000E+00  9.000E+00
       5     1     1     2   501     0 -1.453765016E+00  1.370301053E+00 -2.325650111E+01  2.382054788E+01  4.750000000E+00  0.00000E+00  9.000E+00
      -5     1     1     2     0   503 -3.894246610E+01  2.020525759E+01 -4.592981502E+02  4.614131786E+02  4.750000000E+00  0.00000E+00  9.000E+00
      21     1     1     2   503   512  2.283096263E+01 -3.754874254E+01 -1.318012101E+03  1.318744502E+03  1.525878906E-05  0.00000E+00  9.000E+00
#rwgt            1           9   4.9379101925697277                4      514587           0
</event>
<event>
      6   9999 -3.45752E-01  3.46689E+01 -1.00000E+00  1.43886E-01
      21    -1     0     0   501   502  0.000000000E+00  0.000000000E+00  5.545336612E+01  5.545336612E+01  0.000000000E+00  0.00000E+00  9.000E+00
      21    -1     0     0   511   503  0.000000000E+00  0.000000000E+00 -1.973338386E+03  1.973338386E+03  0.000000000E+00  0.00000E+00  9.000E+00
      25     1     1     2     0     0  3.676812259E+01 -6.528515782E+01 -4.382379314E+02  4.618370962E+02  1.250078885E+02  0.00000E+00  9.000E+00
       5     1     1     2   501     0 -2.529346875E+00 -6.270585477E+00  4.035713318E+01  4.119439933E+01  4.750000000E+00  0.00000E+00  9.000E+00
      -5     1     1     2     0   503 -6.764703643E+01  6.229187354E+01 -8.766840043E+02  8.815065541E+02  4.750000000E+00  0.00000E+00  9.000E+00
      21     1     1     2   511   502  3.340826071E+01  9.263869757E+00 -6.433202176E+02  6.442537027E+02  0.000000000E+00  0.00000E+00  9.000E+00
#rwgt            1           9  -8.7977403264902151E-003           4      515576           0
</event>
<event>
      6   9999  3.45752E-01  1.76304E+01 -1.00000E+00  1.64506E-01
      21    -1     0     0   501   502  0.000000000E+00  0.000000000E+00  4.228330969E+01  4.228330969E+01  0.000000000E+00  0.00000E+00  9.000E+00
      21    -1     0     0   502   512  0.000000000E+00  0.000000000E+00 -1.442107986E+03  1.442107986E+03  0.000000000E+00  0.00000E+00  9.000E+00
      25     1     1     2     0     0 -2.349467873E+01  2.887347449E+01 -1.122803180E+02  1.720940439E+02  1.249952506E+02  0.00000E+00  9.000E+00
       5     1     1     2   501     0  1.787273794E+00  1.789724964E-01  1.114695876E+01  1.224922726E+01  4.750000000E+00  0.00000E+00  9.000E+00
      -5     1     1     2     0   503  1.580690460E+01 -1.243872532E+01 -1.166861893E+03  1.167044909E+03  4.750000000E+00  0.00000E+00  9.000E+00
      21     1     1     2   503   512  5.900500330E+00 -1.661372167E+01 -1.318294241E+02  1.330031154E+02  1.907348633E-06  0.00000E+00  9.000E+00
#rwgt            1           9  0.28722648366324616                4      517159           0
</event>
<event>
      6   9999  3.45752E-01  8.22010E+00 -1.00000E+00  1.96630E-01
      21    -1     0     0   501   502  0.000000000E+00  0.000000000E+00  8.940165396E+00  8.940165396E+00  0.000000000E+00  0.00000E+00  9.000E+00
      21    -1     0     0   511   503  0.000000000E+00  0.000000000E+00 -1.676492265E+03  1.676492265E+03  0.000000000E+00  0.00000E+00  9.000E+00
      25     1     1     2     0     0  4.851135676E+01 -4.897389118E+01 -9.519850928E+02  9.626277875E+02  1.249993863E+02  0.00000E+00  9.000E+00
       5     1     1     2   501     0  1.541447438E+00  6.861287876E-01 -1.444503727E+00  5.243655589E+00  4.750000000E+00  0.00000E+00  9.000E+00
      -5     1     1     2     0   503 -4.269594534E+01  4.462078670E+01 -6.282742351E+02  6.313200736E+02  4.750000000E+00  0.00000E+00  9.000E+00
      21     1     1     2   511   502 -7.356858854E+00  3.666975698E+00 -8.584826757E+01  8.624091330E+01  9.536743164E-07  0.00000E+00  9.000E+00
#rwgt            1           9   1.7300611798202827E-004           4      519691           0
</event>
<event>
      6   9999  3.45752E-01  4.44815E+00 -1.00000E+00  2.38676E-01
      21    -1     0     0   501   512  0.000000000E+00  0.000000000E+00  1.638024562E+02  1.638024562E+02  0.000000000E+00  0.00000E+00  9.000E+00
      21    -1     0     0   502   503  0.000000000E+00  0.000000000E+00 -6.938969020E+02  6.938969020E+02  0.000000000E+00  0.00000E+00  9.000E+00
      25     1     1     2     0     0  1.802869652E+01 -7.860674487E+00 -6.014552584E+02  6.146193620E+02  1.249868321E+02  0.00000E+00  9.000E+00
       5     1     1     2   501     0  6.703238875E-01  1.988672317E+00  7.252408213E+00  8.919869763E+00  4.750000000E+00  0.00000E+00  9.000E+00
      -5     1     1     2     0   503 -1.560881863E+01  2.672516819E+00 -8.418850086E+01  8.579652523E+01  4.750000000E+00  0.00000E+00  9.000E+00
      21     1     1     2   502   512 -3.090201776E+00  3.199485352E+00  1.482969053E+02  1.483636012E+02  2.697398305E-06  0.00000E+00  9.000E+00
#rwgt            1           9   2.8717596001102105E-005           4      522570           0
</event>
<event>
      6   9999  3.45752E-01  6.84546E+01 -1.00000E+00  1.27871E-01
      21    -1     0     0   501   511  0.000000000E+00  0.000000000E+00  2.050146603E+02  2.050146603E+02  0.000000000E+00  0.00000E+00  9.000E+00
      21    -1     0     0   502   503  0.000000000E+00  0.000000000E+00 -3.296469701E+02  3.296469701E+02  0.000000000E+00  0.00000E+00  9.000E+00
      25     1     1     2     0     0  2.213000732E+01  1.345336495E+02  4.426874346E+01  1.901939074E+02  1.249998429E+02  0.00000E+00  9.000E+00
       5     1     1     2   501     0 -3.029800494E+01 -2.255322296E+01 -4.844069248E+01  6.160909151E+01  4.750000000E+00  0.00000E+00  9.000E+00
      -5     1     1     2     0   503 -2.747275388E+00 -4.440167481E+01 -1.840598327E+02  1.894192196E+02  4.750000000E+00  0.00000E+00  9.000E+00
      21     1     1     2   502   511  1.091527301E+01 -6.757875169E+01  6.359947193E+01  9.343941189E+01  9.536743164E-07  0.00000E+00  9.000E+00
#rwgt            1           9  0.16193670940830932                4      527583           0
</event>
<event>
      6   9999 -3.45752E-01  2.53184E+01 -1.00000E+00  1.52768E-01
      21    -1     0     0   501   512  0.000000000E+00  0.000000000E+00  3.900475274E+01  3.900475274E+01  0.000000000E+00  0.00000E+00  9.000E+00
      21    -1     0     0   502   503  0.000000000E+00  0.000000000E+00 -5.748548914E+02  5.748548914E+02  0.000000000E+00  0.00000E+00  9.000E+00
      25     1     1     2     0     0  3.380481723E+01  3.012307190E+01 -4.693078139E+02  4.877878282E+02  1.250478952E+02  0.00000E+00  9.000E+00
       5     1     1     2   501     0 -2.899636723E-01 -4.323832955E+00  1.145938872E+01  1.314000382E+01  4.750000000E+00  0.00000E+00  9.000E+00
      -5     1     1     2     0   503 -2.479366206E+01 -4.956818187E+01 -4.639427762E+01  7.243425866E+01  4.750000000E+00  0.00000E+00  9.000E+00
      21     1     1     2   502   512 -8.721191507E+00  2.376894292E+01 -3.160743591E+01  4.049755343E+01  0.000000000E+00  0.00000E+00  9.000E+00
#rwgt            1           9  -3.1603216092986863                4      528836           0
</event>
<event>
      6   9999  3.45752E-01  2.17989E+01 -1.00000E+00  1.57407E-01
       2    -1     0     0   501     0  0.000000000E+00  0.000000000E+00  2.281199391E+02  2.281199391E+02  0.000000000E+00  0.00000E+00  9.000E+00
      21    -1     0     0   502   503  0.000000000E+00  0.000000000E+00 -2.555503489E+03  2.555503489E+03  0.000000000E+00  0.00000E+00  9.000E+00
      25     1     1     2     0     0 -1.002513752E+01 -1.019689017E+00 -2.442517716E+03  2.445735116E+03  1.250036795E+02  0.00000E+00  9.000E+00
       5     1     1     2   501     0  1.570591372E+01  1.502065251E+01  2.844583872E+01  3.611127204E+01  4.750000000E+00  0.00000E+00  9.000E+00
      -5     1     1     2     0   503 -1.006758300E+00  7.290901498E+00 -1.067527691E+02  1.071115634E+02  4.750000000E+00  0.00000E+00  9.000E+00
       2     1     1     2   502     0 -4.674017898E+00 -2.129186500E+01  1.934410967E+02  1.946654768E+02  0.000000000E+00  0.00000E+00  9.000E+00
#rwgt            1           9   4.2979217725352351E-005           4      530372           0
</event>
<event>
      6   9999  3.45752E-01  3.34097E+00 -1.00000E+00  2.65230E-01
      21    -1     0     0   501   511  0.000000000E+00  0.000000000E+00  5.829606096E+01  5.829606096E+01  0.000000000E+00  0.00000E+00  9.000E+00
      21    -1     0     0   502   503  0.000000000E+00  0.000000000E+00 -9.031252439E+02  9.031252439E+02  0.000000000E+00  0.00000E+00  9.000E+00
      25     1     1     2     0     0  2.203200208E+01 -2.049754690E+00 -7.028713288E+02  7.142446050E+02  1.250105611E+02  0.00000E+00  9.000E+00
       5     1     1     2   501     0 -8.659915143E-01  5.752258822E-01  8.286077300E+00  9.607413967E+00  4.750000000E+00  0.00000E+00  9.000E+00
      -5     1     1     2     0   503 -2.012672902E+01  4.649738532E+00 -1.932624126E+02  1.944212641E+02  4.750000000E+00  0.00000E+00  9.000E+00
      21     1     1     2   502   511 -1.039281548E+00 -3.175209724E+00  4.301848116E+01  4.314802179E+01  1.651812370E-06  0.00000E+00  9.000E+00
#rwgt            1           9   7.1653031784793750E-003           4      533079           0
</event>
<event>
      6   9999  3.45752E-01  4.93079E+00 -1.00000E+00  2.30432E-01
      21    -1     0     0   501   512  0.000000000E+00  0.000000000E+00  4.432399106E+01  4.432399106E+01  0.000000000E+00  0.00000E+00  9.000E+00
      21    -1     0     0   502   503  0.000000000E+00  0.000000000E+00 -8.868600883E+02  8.868600883E+02  0.000000000E+00  0.00000E+00  9.000E+00
      25     1     1     2     0     0 -2.500146542E+00 -9.838985573E+00 -5.998146469E+02  6.127844837E+02  1.249966255E+02  0.00000E+00  9.000E+00
       5     1     1     2   501     0 -9.216314528E-01 -3.030887280E+00  6.721927734E+00  8.819438458E+00  4.750000000E+00  0.00000E+00  9.000E+00
      -5     1     1     2     0   503  7.624177662E+00  1.029062313E+01 -2.791414852E+02  2.794755021E+02  4.750000000E+00  0.00000E+00  9.000E+00
      21     1     1     2   502   512 -4.202399667E+00  2.579249718E+00  2.969810716E+01  3.010465514E+01  8.920806376E-07  0.00000E+00  9.000E+00
#rwgt            1           9   4.0488267204261209E-005           4      540372           0
</event>
<event>
      6   9999 -3.45752E-01  5.38383E+00 -1.00000E+00  2.20830E-01
      21    -1     0     0   501   511  0.000000000E+00  0.000000000E+00  1.234687991E+02  1.234687991E+02  0.000000000E+00  0.00000E+00  9.000E+00
      21    -1     0     0   502   503  0.000000000E+00  0.000000000E+00 -9.361105435E+02  9.361105435E+02  0.000000000E+00  0.00000E+00  9.000E+00
      25     1     1     2     0     0  4.973949891E+00 -3.380112882E+00 -9.021709077E+02  9.108092905E+02  1.250002062E+02  0.00000E+00  9.000E+00
       5     1     1     2   501     0  5.723228873E-02 -2.795658224E+00  1.650899528E+01  1.740483857E+01  4.750000000E+00  0.00000E+00  9.000E+00
      -5     1     1     2     0   503 -3.152662692E+00  1.130303666E+00 -2.881122497E+01  2.939159833E+01  4.750000000E+00  0.00000E+00  9.000E+00
      21     1     1     2   502   511 -1.878519487E+00  5.045467439E+00  1.018313930E+02  1.019736151E+02  2.336015456E-06  0.00000E+00  9.000E+00
#rwgt            1           9  -7.8564808764890345E-004           4      544758           0
</event>
<event>
      6   9999 -3.45752E-01  1.19718E+01 -1.00000E+00  1.79320E-01
      21    -1     0     0   501   502  0.000000000E+00  0.000000000E+00  7.197481452E+00  7.197481452E+00  0.000000000E+00  0.00000E+00  9.000E+00
       2    -1     0     0   502     0  0.000000000E+00  0.000000000E+00 -1.269967689E+03  1.269967689E+03  0.000000000E+00  0.00000E+00  9.000E+00
      25     1     1     2     0     0 -5.045266159E-01 -1.249309804E+01 -6.391526063E+02  6.513816474E+02  1.250026574E+02  0.00000E+00  9.000E+00
       5     1     1     2   501     0  9.199134227E+00  9.372196424E+00 -7.718371810E+01  7.843692356E+01  4.750000000E+00  0.00000E+00  9.000E+00
      -5     1     1     2     0   503  1.488938160E+00  9.415308330E+00 -7.414403791E+01  7.490504540E+01  4.750000000E+00  0.00000E+00  9.000E+00
       2     1     1     2   503     0 -1.018354577E+01 -6.294406718E+00 -4.722898451E+02  4.724415540E+02  0.000000000E+00  0.00000E+00  9.000E+00
#rwgt            1           9  -6.6021352512996402E-004           4      549350           0
</event>
<event>
      6   9999  3.45752E-01  2.15239E+01 -1.00000E+00  1.57814E-01
      21    -1     0     0   511   502  0.000000000E+00  0.000000000E+00  9.340652770E+01  9.340652770E+01  0.000000000E+00  0.00000E+00  9.000E+00
      21    -1     0     0   502   503  0.000000000E+00  0.000000000E+00 -1.648024027E+03  1.648024027E+03  0.000000000E+00  0.00000E+00  9.000E+00
      25     1     1     2     0     0  1.456234136E+01 -2.704113979E+01 -1.039422455E+03  1.047362589E+03  1.250042640E+02  0.00000E+00  9.000E+00
       5     1     1     2   501     0 -6.518557242E+00 -1.146955848E+01  8.475332834E+01  8.590536377E+01  4.750000000E+00  0.00000E+00  9.000E+00
      -5     1     1     2     0   503  1.313796943E+01  4.233344175E+01 -5.673543994E+02  5.691030693E+02  4.750000000E+00  0.00000E+00  9.000E+00
      21     1     1     2   511   501 -2.118175354E+01 -3.822743481E+00 -3.259397232E+01  3.905953254E+01  4.768371582E-07  0.00000E+00  9.000E+00
#rwgt            1           9   8.1253868978557915E-004           4      551542           0
</event>
<event>
      6   9999  3.45752E-01  9.94456E+01 -1.00000E+00  1.20538E-01
       3    -1     0     0   501     0  0.000000000E+00  0.000000000E+00  2.431477231E+01  2.431477231E+01  0.000000000E+00  0.00000E+00  9.000E+00
      21    -1     0     0   512   502  0.000000000E+00  0.000000000E+00 -1.209481739E+03  1.209481739E+03  0.000000000E+00  0.00000E+00  9.000E+00
      25     1     1     2     0     0  8.100612910E+01 -4.232282005E+01 -5.615666702E+02  5.825345720E+02  1.250447461E+02  0.00000E+00  9.000E+00
       5     1     1     2   501     0  1.696292190E+00  6.826387667E+00 -1.152055635E+02  1.155177967E+02  4.750000000E+00  0.00000E+00  9.000E+00
      -5     1     1     2     0   502  1.253191400E+01  6.412935249E+01 -2.613170431E+02  2.694044956E+02  4.750000000E+00  0.00000E+00  9.000E+00
       3     1     1     2   512     0 -9.523433529E+01 -2.863292010E+01 -2.470776895E+02  2.663396467E+02  3.814697266E-06  0.00000E+00  9.000E+00
#rwgt            1           8   2.9142934380682910E-005           4      554558           0
</event>
<event>
      6   9999  3.45752E-01  9.19473E+00 -1.00000E+00  1.91118E-01
       2    -1     0     0   501     0  0.000000000E+00  0.000000000E+00  1.829861756E+02  1.829861756E+02  0.000000000E+00  0.00000E+00  9.000E+00
      21    -1     0     0   502   503  0.000000000E+00  0.000000000E+00 -7.931797239E+02  7.931797239E+02  0.000000000E+00  0.00000E+00  9.000E+00
      25     1     1     2     0     0  1.138859222E+01 -7.057212798E+00 -6.221691297E+02  6.347435125E+02  1.250015858E+02  0.00000E+00  9.000E+00
       5     1     1     2   501     0 -1.595103195E+00  8.490698840E-01  2.160189236E+00  5.522154598E+00  4.750000000E+00  0.00000E+00  9.000E+00
      -5     1     1     2     0   503 -1.835989833E+01  2.867536631E+00 -1.623552495E+02  1.634842445E+02  4.750000000E+00  0.00000E+00  9.000E+00
       2     1     1     2   502     0  8.566409307E+00  3.340606283E+00  1.721706417E+02  1.724159879E+02  5.722045898E-06  0.00000E+00  9.000E+00
#rwgt            1           9   9.5928823274778066E-004           4      554761           0
</event>
<event>
      6   9999  3.45752E-01  9.08083E+00 -1.00000E+00  1.91715E-01
      21    -1     0     0   502   511  0.000000000E+00  0.000000000E+00  7.677472759E+01  7.677472759E+01  0.000000000E+00  0.00000E+00  9.000E+00
      21    -1     0     0   501   502  0.000000000E+00  0.000000000E+00 -2.403704200E+03  2.403704200E+03  0.000000000E+00  0.00000E+00  9.000E+00
      25     1     1     2     0     0 -1.831439567E+01 -2.627117823E+01 -2.007950768E+03  2.012092640E+03  1.249996631E+02  0.00000E+00  9.000E+00
       5     1     1     2   501     0  1.758128033E-01  3.214987355E-01 -2.508242866E+02  2.508695269E+02  4.750000000E+00  0.00000E+00  9.000E+00
      -5     1     1     2     0   503  1.829105885E+01  3.502922456E+01 -1.397705816E+02  1.453271736E+02  4.750000000E+00  0.00000E+00  9.000E+00
      21     1     1     2   503   511 -1.524759854E-01 -9.079545068E+00  7.161616412E+01  7.218958616E+01  4.955437110E-06  0.00000E+00  9.000E+00
#rwgt            1           9   5.3532706566260628E-003           4      557303           0
</event>
<event>
      6   9999  3.45752E-01  3.39921E+01 -1.00000E+00  1.44412E-01
      21    -1     0     0   501   502  0.000000000E+00  0.000000000E+00  1.067941026E+02  1.067941026E+02  0.000000000E+00  0.00000E+00  9.000E+00
      21    -1     0     0   502   512  0.000000000E+00  0.000000000E+00 -1.645687410E+03  1.645687410E+03  0.000000000E+00  0.00000E+00  9.000E+00
      25     1     1     2     0     0  1.060668037E+02 -1.205640683E+02 -1.414919652E+03  1.429461185E+03  1.248030400E+02  0.00000E+00  9.000E+00
       5     1     1     2   501     0 -7.691391538E+01  1.507365055E+02  2.043077048E+01  1.705204485E+02  4.750000000E+00  0.00000E+00  9.000E+00
      -5     1     1     2     0   503 -3.066305860E+00 -8.378982198E+00 -6.965336786E+01  7.038297897E+01  4.750000000E+00  0.00000E+00  9.000E+00
      21     1     1     2   503   512 -2.608658245E+01 -2.179345503E+01 -7.475105851E+01  8.211689969E+01  0.000000000E+00  0.00000E+00  9.000E+00
#rwgt            1           9   4.9642093715405394E-005           4      559912           0
</event>
<event>
      6   9999  3.45752E-01  4.88219E+00 -1.00000E+00  2.31198E-01
      21    -1     0     0   501   511  0.000000000E+00  0.000000000E+00  8.964391447E+00  8.964391447E+00  0.000000000E+00  0.00000E+00  9.000E+00
      21    -1     0     0   502   503  0.000000000E+00  0.000000000E+00 -4.647297174E+03  4.647297174E+03  0.000000000E+00  0.00000E+00  9.000E+00
      25     1     1     2     0     0  1.675684794E+01  4.547520344E+00 -4.267408176E+03  4.269273876E+03  1.250016401E+02  0.00000E+00  9.000E+00
       5     1     1     2   501     0  9.650148694E-01 -1.964186494E-01 -2.319733461E+01  2.369912798E+01  4.750000000E+00  0.00000E+00  9.000E+00
      -5     1     1     2     0   503 -1.371196665E+01 -1.566042993E+00 -3.545768402E+02  3.548771176E+02  4.750000000E+00  0.00000E+00  9.000E+00
      21     1     1     2   502   511 -4.009896157E+00 -2.785058702E+00  6.849568064E+00  8.411444694E+00  5.462855929E-07  0.00000E+00  9.000E+00
#rwgt            1           9   1.3242879121856253E-005           4      562388           0
</event>
<event>
      6   9999  3.45752E-01  3.28011E+00 -1.00000E+00  2.67150E-01
      21    -1     0     0   512   502  0.000000000E+00  0.000000000E+00  1.174552986E+01  1.174552986E+01  0.000000000E+00  0.00000E+00  9.000E+00
      21    -1     0     0   502   503  0.000000000E+00  0.000000000E+00 -7.884971544E+02  7.884971544E+02  0.000000000E+00  0.00000E+00  9.000E+00
      25     1     1     2     0     0 -3.451768883E+00  4.307030119E+00 -6.082478723E+02  6.209843618E+02  1.250025529E+02  0.00000E+00  9.000E+00
       5     1     1     2   501     0  8.306966300E-02 -4.312714140E-01  1.986351253E+00  5.167299769E+00  4.750000000E+00  0.00000E+00  9.000E+00
      -5     1     1     2     0   503  4.646859544E+00 -8.549253010E-01 -1.706742966E+02  1.708057441E+02  4.750000000E+00  0.00000E+00  9.000E+00
      21     1     1     2   512   501 -1.278160324E+00 -3.020833404E+00  1.841931080E-01  3.285278583E+00  1.013730826E-07  0.00000E+00  9.000E+00
#rwgt            1           9   2.3246275062361875E-005           4      565666           0
</event>
<event>
      6   9999  3.45752E-01  3.58795E+00 -1.00000E+00  2.58045E-01
      21    -1     0     0   501   502  0.000000000E+00  0.000000000E+00  9.657521866E+00  9.657521866E+00  0.000000000E+00  0.00000E+00  9.000E+00
      21    -1     0     0   511   503  0.000000000E+00  0.000000000E+00 -9.194879601E+02  9.194879601E+02  0.000000000E+00  0.00000E+00  9.000E+00
      25     1     1     2     0     0 -7.505749799E-01  2.489797978E+00 -7.652674140E+02  7.754134066E+02  1.249998949E+02  0.00000E+00  9.000E+00
       5     1     1     2   501     0  2.344783229E+00  1.440469034E+00  2.551589193E+00  6.053599495E+00  4.750000000E+00  0.00000E+00  9.000E+00
      -5     1     1     2     0   503  5.115729197E-01 -1.025257408E+00 -2.306037267E+01  2.357235982E+01  4.750000000E+00  0.00000E+00  9.000E+00
      21     1     1     2   511   502 -2.105781169E+00 -2.905009605E+00 -1.240542407E+02  1.241061160E+02  1.348699152E-06  0.00000E+00  9.000E+00
#rwgt            1           9   1.6437422593681408E-005           4      570935           0
</event>
<event>
      6   9999 -3.45752E-01  1.22793E+01 -1.00000E+00  1.78265E-01
      21    -1     0     0   512   502  0.000000000E+00  0.000000000E+00  6.353420509E+01  6.353420509E+01  0.000000000E+00  0.00000E+00  9.000E+00
      21    -1     0     0   502   503  0.000000000E+00  0.000000000E+00 -1.182021593E+03  1.182021593E+03  0.000000000E+00  0.00000E+00  9.000E+00
      25     1     1     2     0     0 -1.231442731E+01  5.744123060E+00 -1.146470307E+03  1.153344379E+03  1.249978026E+02  0.00000E+00  9.000E+00
       5     1     1     2   501     0  5.597035656E+00  3.064128792E-01  3.949220916E+01  4.016986160E+01  4.750000000E+00  0.00000E+00  9.000E+00
      -5     1     1     2     0   503 -3.773567751E+00  3.307431185E-01 -2.957787125E+01  3.019539985E+01  4.750000000E+00  0.00000E+00  9.000E+00
      21     1     1     2   512   501  1.049095941E+01 -6.381279058E+00  1.806858175E+01  2.184615751E+01  9.233911863E-07  0.00000E+00  9.000E+00
#rwgt            1           9  -2.2834184381355436E-004           4      575301           0
</event>
<event>
      6   9999  3.45752E-01  3.04930E+01 -1.00000E+00  1.47382E-01
       1    -1     0     0   501     0  0.000000000E+00  0.000000000E+00  2.052547034E+01  2.052547034E+01  0.000000000E+00  0.00000E+00  9.000E+00
      -1    -1     0     0     0   511  0.000000000E+00  0.000000000E+00 -1.407841377E+03  1.407841377E+03  0.000000000E+00  0.00000E+00  9.000E+00
      25     1     1     2     0     0 -6.484441322E+01  8.554056059E+01 -6.203292716E+02  6.418367198E+02  1.249959370E+02  0.00000E+00  9.000E+00
       5     1     1     2   501     0  6.053511309E+01 -1.555726997E+01 -2.488481355E+02  2.566212883E+02  4.750000000E+00  0.00000E+00  9.000E+00
      -5     1     1     2     0   502  1.885291023E+01 -4.318209701E+01 -9.985831374E+01  1.105186457E+02  4.750000000E+00  0.00000E+00  9.000E+00
      21     1     1     2   502   511 -1.454361010E+01 -2.680119361E+01 -4.182801859E+02  4.193901936E+02  0.000000000E+00  0.00000E+00  9.000E+00
#rwgt            1           2   1.2431546567276695E-004           4      579058           0
</event>
<event>
      6   9999  3.45752E-01  7.02944E+00 -1.00000E+00  2.04907E-01
      21    -1     0     0   512   502  0.000000000E+00  0.000000000E+00  3.456665952E+01  3.456665952E+01  0.000000000E+00  0.00000E+00  9.000E+00
      21    -1     0     0   502   503  0.000000000E+00  0.000000000E+00 -2.665449093E+03  2.665449093E+03  0.000000000E+00  0.00000E+00  9.000E+00
      25     1     1     2     0     0 -2.324670412E+01 -5.055965933E+01 -9.010154770E+02  9.113451959E+02  1.249979517E+02  0.00000E+00  9.000E+00
       5     1     1     2   501     0 -1.089292650E+01  5.760855770E-01  2.687744202E+01  2.939297725E+01  4.750000000E+00  0.00000E+00  9.000E+00
      -5     1     1     2     0   503  3.855151797E+01  4.451107775E+01 -1.741376648E+03  1.742378445E+03  4.750000000E+00  0.00000E+00  9.000E+00
      21     1     1     2   512   501 -4.411887347E+00  5.472495999E+00 -1.536775103E+01  1.689913413E+01  5.331201500E-07  0.00000E+00  9.000E+00
#rwgt            1           9   4.8950823975948486E-002           4      579382           0
</event>
<event>
      6   9999  3.45752E-01  4.71355E+01 -1.00000E+00  1.36173E-01
      21    -1     0     0   501   502  0.000000000E+00  0.000000000E+00  1.310213046E+02  1.310213046E+02  0.000000000E+00  0.00000E+00  9.000E+00
       1    -1     0     0   502     0  0.000000000E+00  0.000000000E+00 -7.912645118E+02  7.912645118E+02  0.000000000E+00  0.00000E+00  9.000E+00
      25     1     1     2     0     0 -8.985516528E+01  6.770230072E+01  4.465683076E+01  1.740035148E+02  1.250017535E+02  0.00000E+00  9.000E+00
       5     1     1     2   501     0  1.465977722E+00  1.169827296E+00  6.827005296E+00  8.525730931E+00  4.750000000E+00  0.00000E+00  9.000E+00
      -5     1     1     2     0   503  1.265630271E+02 -4.122237442E+01 -3.417249727E+02  3.667642342E+02  4.750000000E+00  0.00000E+00  9.000E+00
       1     1     1     2   503     0 -3.817383958E+01 -2.764975359E+01 -3.700020705E+02  3.729923365E+02  0.000000000E+00  0.00000E+00  9.000E+00
#rwgt            1           9   347.07884324299374                4      584046           0
</event>
<event>
      6   9999  3.45752E-01  4.61507E+01 -1.00000E+00  1.36676E-01
      21    -1     0     0   501   511  0.000000000E+00  0.000000000E+00  5.197418816E+02  5.197418816E+02  0.000000000E+00  0.00000E+00  9.000E+00
      21    -1     0     0   502   503  0.000000000E+00  0.000000000E+00 -9.288483972E+02  9.288483972E+02  0.000000000E+00  0.00000E+00  9.000E+00
      25     1     1     2     0     0 -3.378898762E+00  3.847999622E+01 -6.782470562E+02  6.907500564E+02  1.249977768E+02  0.00000E+00  9.000E+00
       5     1     1     2   501     0 -5.324500023E+00  1.314766812E+01  3.607066641E+00  1.538781684E+01  4.750000000E+00  0.00000E+00  9.000E+00
      -5     1     1     2     0   503 -9.285088831E+00 -9.127043709E+00 -2.372002638E+02  2.376048052E+02  4.750000000E+00  0.00000E+00  9.000E+00
      21     1     1     2   502   511  1.798848762E+01 -4.250062063E+01  5.027337378E+02  5.048476003E+02  0.000000000E+00  0.00000E+00  9.000E+00
#rwgt            1           9   1.8394254503070039E-002           4      585360           0
</event>
<event>
      6   9999  3.45752E-01  1.69705E+01 -1.00000E+00  1.65853E-01
      21    -1     0     0   501   502  0.000000000E+00  0.000000000E+00  2.359686926E+01  2.359686926E+01  0.000000000E+00  0.00000E+00  9.000E+00
      21    -1     0     0   502   512  0.000000000E+00  0.000000000E+00 -1.060550895E+03  1.060550895E+03  0.000000000E+00  0.00000E+00  9.000E+00
      25     1     1     2     0     0 -1.383922951E+01 -1.227124242E+01 -9.181073649E+02  9.267611820E+02  1.249921891E+02  0.00000E+00  9.000E+00
       5     1     1     2   501     0  6.117310241E-01 -1.607303309E+00  1.786658588E+01  1.856704150E+01  4.750000000E+00  0.00000E+00  9.000E+00
      -5     1     1     2     0   503  1.789683155E+00  1.341638679E+00 -6.110564992E+01  6.133079090E+01  4.750000000E+00  0.00000E+00  9.000E+00
      21     1     1     2   503   512  1.143781533E+01  1.253690705E+01 -7.560759643E+01  7.748874948E+01  9.536743164E-07  0.00000E+00  9.000E+00
#rwgt            1           9   4.3321678893056410E-004           4      586271           0
</event>
<event>
      6   9999  3.45752E-01  2.90778E+01 -1.00000E+00  1.48721E-01
      21    -1     0     0   501   502  0.000000000E+00  0.000000000E+00  5.542055009E+01  5.542055009E+01  0.000000000E+00  0.00000E+00  9.000E+00
      21    -1     0     0   502   511  0.000000000E+00  0.000000000E+00 -6.981866925E+02  6.981866925E+02  0.000000000E+00  0.00000E+00  9.000E+00
      25     1     1     2     0     0 -3.063616983E+01 -7.603523510E+01 -1.230467270E+02  1.936236494E+02  1.250187535E+02  0.00000E+00  9.000E+00
       5     1     1     2   501     0  1.072054395E+01 -3.426172670E+00 -6.483472474E+00  1.382991819E+01  4.750000000E+00  0.00000E+00  9.000E+00
      -5     1     1     2     0   503  4.874318760E+01  8.326768790E+01 -1.307574334E+02  1.625714461E+02  4.750000000E+00  0.00000E+00  9.000E+00
      21     1     1     2   503   511 -2.882756171E+01 -3.806280127E+00 -3.824785095E+02  3.835822289E+02  5.394796609E-06  0.00000E+00  9.000E+00
#rwgt            1           9   1.0741571727031871                4      588340           0
</event>
<event>
      6   9999  3.45752E-01  1.12281E+01 -1.00000E+00  1.82046E-01
      -1    -1     0     0     0   502  0.000000000E+00  0.000000000E+00  4.152295630E+01  4.152295630E+01  0.000000000E+00  0.00000E+00  9.000E+00
       1    -1     0     0   512     0  0.000000000E+00  0.000000000E+00 -1.238165347E+03  1.238165347E+03  0.000000000E+00  0.00000E+00  9.000E+00
      25     1     1     2     0     0  1.004872448E+01  7.518620072E+01 -1.005531519E+02  1.774507003E+02  1.249954921E+02  0.00000E+00  9.000E+00
       5     1     1     2   501     0  3.550721322E+01 -3.268544980E+01 -4.186324687E+02  4.214318535E+02  4.750000000E+00  0.00000E+00  9.000E+00
      -5     1     1     2     0   502 -4.490270669E+01 -3.129165604E+01 -5.037995392E+02  5.067859105E+02  4.750000000E+00  0.00000E+00  9.000E+00
      21     1     1     2   512   501 -6.532310114E-01 -1.120909488E+01 -1.736572307E+02  1.740198388E+02  2.697398305E-06  0.00000E+00  9.000E+00
#rwgt            1           1   4.9565355613213121E-004           4      589626           0
</event>
<event>
      6   9999  3.45752E-01  9.11023E+00 -1.00000E+00  1.91560E-01
      21    -1     0     0   501   502  0.000000000E+00  0.000000000E+00  2.754129207E+01  2.754129207E+01  0.000000000E+00  0.00000E+00  9.000E+00
       3    -1     0     0   502     0  0.000000000E+00  0.000000000E+00 -8.626451642E+02  8.626451642E+02  0.000000000E+00  0.00000E+00  9.000E+00
      25     1     1     2     0     0 -5.392332808E+01  6.366018852E+01 -4.378113045E+02  4.628846799E+02  1.249925741E+02  0.00000E+00  9.000E+00
       5     1     1     2   501     0 -1.925027685E+00 -2.157679487E+00  7.202952019E+00  9.099798358E+00  4.750000000E+00  0.00000E+00  9.000E+00
      -5     1     1     2     0   503  4.680383547E+01 -6.259476253E+01 -2.206660032E+02  2.341468573E+02  4.750000000E+00  0.00000E+00  9.000E+00
       3     1     1     2   503     0  9.044520296E+00  1.092253492E+00 -1.838295164E+02  1.840551207E+02  0.000000000E+00  0.00000E+00  9.000E+00
#rwgt            1           9   4.5148473010400501E-002           4      590289           0
</event>
<event>
      6   9999  3.45752E-01  8.91303E+00 -1.00000E+00  1.92616E-01
      21    -1     0     0   511   502  0.000000000E+00  0.000000000E+00  1.920143119E+01  1.920143119E+01  0.000000000E+00  0.00000E+00  9.000E+00
      21    -1     0     0   502   503  0.000000000E+00  0.000000000E+00 -7.537678340E+02  7.537678340E+02  0.000000000E+00  0.00000E+00  9.000E+00
      25     1     1     2     0     0  2.553781524E+00 -3.263092843E+00 -7.032976138E+02  7.143295984E+02  1.249882874E+02  0.00000E+00  9.000E+00
       5     1     1     2   501     0  1.299184708E+00 -2.206635282E+00  3.758163609E-01  5.409330653E+00  4.750000000E+00  0.00000E+00  9.000E+00
      -5     1     1     2     0   503  3.677536495E+00  7.017510541E-01 -4.033258066E+01  4.078352967E+01  4.750000000E+00  0.00000E+00  9.000E+00
      21     1     1     2   511   501 -7.530502727E+00  4.767977071E+00  8.687975297E+00  1.244680648E+01  8.840797528E-07  0.00000E+00  9.000E+00
#rwgt            1           9   1.4862616665832240E-005           4      593361           0
</event>
<event>
      6   9999  3.45752E-01  1.91655E+01 -1.00000E+00  1.61636E-01
      21    -1     0     0   501   502  0.000000000E+00  0.000000000E+00  8.943186106E+00  8.943186106E+00  0.000000000E+00  0.00000E+00  9.000E+00
       2    -1     0     0   502     0  0.000000000E+00  0.000000000E+00 -1.223761388E+03  1.223761388E+03  0.000000000E+00  0.00000E+00  9.000E+00
      25     1     1     2     0     0  3.079454070E+01 -7.269491691E+00 -6.794118516E+02  6.915393724E+02  1.250003612E+02  0.00000E+00  9.000E+00
       5     1     1     2   501     0  1.025658317E+00 -8.060191956E-01 -5.442041412E+00  7.340296769E+00  4.750000000E+00  0.00000E+00  9.000E+00
      -5     1     1     2     0   503 -1.858549235E+01 -5.786687571E+00 -5.605843841E+01  5.953164953E+01  4.750000000E+00  0.00000E+00  9.000E+00
       2     1     1     2   503     0 -1.323470667E+01  1.386219846E+01 -4.739058707E+02  4.742932556E+02  0.000000000E+00  0.00000E+00  9.000E+00
#rwgt            1           9   1.4657313417907210E-003           4      595903           0
</event>
<event>
      6   9999  3.45752E-01  1.58955E+01 -1.00000E+00  1.68218E-01
      21    -1     0     0   501   502  0.000000000E+00  0.000000000E+00  3.726571100E+01  3.726571100E+01  0.000000000E+00  0.00000E+00  9.000E+00
      21    -1     0     0   511   503  0.000000000E+00  0.000000000E+00 -3.398372294E+02  3.398372294E+02  0.000000000E+00  0.00000E+00  9.000E+00
      25     1     1     2     0     0  1.873359288E+01  2.094794392E+00 -1.060058941E+02  1.649735121E+02  1.249946977E+02  0.00000E+00  9.000E+00
       5     1     1     2   501     0  5.864034472E-01 -1.221501929E+00  4.980179341E+00  7.014315521E+00  4.750000000E+00  0.00000E+00  9.000E+00
      -5     1     1     2     0   503 -6.630105618E+00 -1.044580441E+01 -2.954295272E+01  3.237934041E+01  4.750000000E+00  0.00000E+00  9.000E+00
      21     1     1     2   511   502 -1.268989071E+01  9.572511944E+00 -1.720028510E+02  1.727357724E+02  1.907348633E-06  0.00000E+00  9.000E+00
#rwgt            1           9   1.9595576145436087E-002           4      597107           0
</event>
<event>
      6   9999 -3.45752E-01  9.34796E+00 -1.00000E+00  1.90332E-01
      21    -1     0     0   501   502  0.000000000E+00  0.000000000E+00  1.083279831E+01  1.083279831E+01  0.000000000E+00  0.00000E+00  9.000E+00
      21    -1     0     0   512   503  0.000000000E+00  0.000000000E+00 -2.923948334E+03  2.923948334E+03  0.000000000E+00  0.00000E+00  9.000E+00
      25     1     1     2     0     0 -1.233531910E+01 -1.639835819E-01 -1.155527434E+03  1.162334317E+03  1.250009071E+02  0.00000E+00  9.000E+00
       5     1     1     2   501     0  2.448636844E+00 -7.917346400E-01  6.289860170E+00  8.291411646E+00  4.750000000E+00  0.00000E+00  9.000E+00
      -5     1     1     2     0   503  6.111341289E+00 -7.595956753E+00 -2.361894001E+02  2.364382420E+02  4.750000000E+00  0.00000E+00  9.000E+00
      21     1     1     2   512   502  3.775340969E+00  8.551674975E+00 -1.527688562E+03  1.527717161E+03  3.051757812E-05  0.00000E+00  9.000E+00
#rwgt            1           9  -4.6368139007204228                4      598721           0
</event>
<event>
      6   9999  3.45752E-01  9.39823E+00 -1.00000E+00  1.90078E-01
      21    -1     0     0   501   502  0.000000000E+00  0.000000000E+00  1.644754909E+01  1.644754909E+01  0.000000000E+00  0.00000E+00  9.000E+00
      21    -1     0     0   502   511  0.000000000E+00  0.000000000E+00 -2.162345491E+03  2.162345491E+03  0.000000000E+00  0.00000E+00  9.000E+00
      25     1     1     2     0     0 -7.140958319E+00 -7.627517148E+00 -7.739149657E+02  7.840098568E+02  1.249716335E+02  0.00000E+00  9.000E+00
       5     1     1     2   501     0 -1.494033170E+00  6.296787998E+00  9.323549239E+00  1.230336314E+01  4.750000000E+00  0.00000E+00  9.000E+00
      -5     1     1     2     0   503  1.159189074E+01  1.025168870E+01 -1.145151193E+02  1.156535521E+02  4.750000000E+00  0.00000E+00  9.000E+00
      21     1     1     2   503   511 -2.956899251E+00 -8.920959551E+00 -1.266791406E+03  1.266826268E+03  2.642899792E-05  0.00000E+00  9.000E+00
#rwgt            1           9   1.9421162746476321E-003           4      601598           0
</event>
<event>
      6   9999 -3.45752E-01  8.22000E+01 -1.00000E+00  1.24167E-01
      21    -1     0     0   502   503  0.000000000E+00  0.000000000E+00  6.491057653E+03  6.491057653E+03  0.000000000E+00  0.00000E+00  9.000E+00
      21    -1     0     0   512   502  0.000000000E+00  0.000000000E+00 -7.975851352E+01  7.975851352E+01  0.000000000E+00  0.00000E+00  9.000E+00
      25     1     1     2     0     0 -4.279869353E+01 -4.518164364E+01  1.087065039E+03  1.095998894E+03  1.250202647E+02  0.00000E+00  9.000E+00
       5     1     1     2   501     0 -7.504185402E+00 -8.018951095E+01  2.886788969E+02  2.997411191E+02  4.750000000E+00  0.00000E+00  9.000E+00
      -5     1     1     2     0   503  1.178139192E+02  7.847654083E+01  5.079766556E+03  5.081740796E+03  4.749999999E+00  0.00000E+00  9.000E+00
      21     1     1     2   512   501 -6.751104023E+01  4.689461375E+01 -4.421135272E+01  9.333535804E+01  5.373681865E-06  0.00000E+00  9.000E+00
#rwgt            1           9  -4.7394663958770928E-004           4      604457           0
</event>
<event>
      6   9999 -3.45752E-01  2.63992E+01 -1.00000E+00  1.51522E-01
      21    -1     0     0   501   502  0.000000000E+00  0.000000000E+00  9.270157964E+01  9.270157964E+01  0.000000000E+00  0.00000E+00  9.000E+00
      21    -1     0     0   511   503  0.000000000E+00  0.000000000E+00 -1.767725417E+03  1.767725417E+03  0.000000000E+00  0.00000E+00  9.000E+00
      25     1     1     2     0     0 -1.117297178E+02 -1.949918493E+02 -9.500229529E+02  9.842122262E+02  1.249989763E+02  0.00000E+00  9.000E+00
       5     1     1     2   501     0  2.459955730E+00  3.452786132E+00  5.994283597E+01  6.028000662E+01  4.750000000E+00  0.00000E+00  9.000E+00
      -5     1     1     2     0   503  8.936340519E+01  1.741996641E+02 -7.080759196E+02  7.346600654E+02  4.750000000E+00  0.00000E+00  9.000E+00
      21     1     1     2   511   502  1.990635690E+01  1.733939912E+01 -7.686780063E+01  8.127469828E+01  9.536743164E-07  0.00000E+00  9.000E+00
#rwgt            1           9  -8.8940066853873297E-003           4      605016           0
</event>
<event>
      6   9999  3.45752E-01  4.60009E+00 -1.00000E+00  2.35920E-01
      21    -1     0     0   501   512  0.000000000E+00  0.000000000E+00  1.371466563E+01  1.371466563E+01  0.000000000E+00  0.00000E+00  9.000E+00
      21    -1     0     0   502   503  0.000000000E+00  0.000000000E+00 -7.685313656E+02  7.685313656E+02  0.000000000E+00  0.00000E+00  9.000E+00
      25     1     1     2     0     0 -2.854704604E+00 -3.341277813E+00 -7.415650475E+02  7.520393985E+02  1.250008953E+02  0.00000E+00  9.000E+00
       5     1     1     2   501     0  1.214634125E+00 -1.170273866E+00  2.544104529E+00  5.646223944E+00  4.750000000E+00  0.00000E+00  9.000E+00
      -5     1     1     2     0   503 -1.252704130E+00  9.348645652E-01 -1.854095420E+01  1.920345599E+01  4.750000000E+00  0.00000E+00  9.000E+00
      21     1     1     2   502   512  2.892774609E+00  3.576687113E+00  2.745197165E+00  5.356952783E+00  2.563692709E-07  0.00000E+00  9.000E+00
#rwgt            1           9   1.8296786066355377E-004           4      607594           0
</event>
<event>
      6   9999  3.45752E-01  4.46732E+00 -1.00000E+00  2.38319E-01
      21    -1     0     0   501   511  0.000000000E+00  0.000000000E+00  5.620932904E+01  5.620932904E+01  0.000000000E+00  0.00000E+00  9.000E+00
      21    -1     0     0   502   503  0.000000000E+00  0.000000000E+00 -1.422499479E+02  1.422499479E+02  0.000000000E+00  0.00000E+00  9.000E+00
      25     1     1     2     0     0 -3.814523470E+00 -3.702733196E+00 -1.077569209E+02  1.651201924E+02  1.249994524E+02  0.00000E+00  9.000E+00
       5     1     1     2   501     0 -1.471489591E+00 -9.433288525E-01  1.248434763E+01  1.347132461E+01  4.750000000E+00  0.00000E+00  9.000E+00
      -5     1     1     2     0   503  3.257851449E+00  6.656745883E-01 -3.224471702E+00  6.634488411E+00  4.750000000E+00  0.00000E+00  9.000E+00
      21     1     1     2   502   511  2.028161612E+00  3.980387460E+00  1.245642613E+01  1.323327154E+01  2.920019320E-07  0.00000E+00  9.000E+00
#rwgt            1           9   1.4369769632905894E-003           4      611960           0
</event>
<event>
      6   9999  3.45752E-01  1.33460E+01 -1.00000E+00  1.74889E-01
      21    -1     0     0   501   512  0.000000000E+00  0.000000000E+00  5.401356008E+01  5.401356008E+01  0.000000000E+00  0.00000E+00  9.000E+00
      21    -1     0     0   502   503  0.000000000E+00  0.000000000E+00 -1.206793951E+03  1.206793951E+03  0.000000000E+00  0.00000E+00  9.000E+00
      25     1     1     2     0     0  3.234858005E+01 -3.887207691E+01 -5.832277799E+02  5.986132839E+02  1.250030057E+02  0.00000E+00  9.000E+00
       5     1     1     2   501     0  3.435544710E+00 -1.926451257E+01  2.556311664E+01  3.254166321E+01  4.750000000E+00  0.00000E+00  9.000E+00
      -5     1     1     2     0   503 -4.348102387E+01  6.903947983E+01 -6.065784670E+02  6.120596771E+02  4.750000000E+00  0.00000E+00  9.000E+00
      21     1     1     2   502   512  7.696899112E+00 -1.090289034E+01  1.146273935E+01  1.759288684E+01  6.529361695E-07  0.00000E+00  9.000E+00
#rwgt            1           9   930.38383502196712                4      615616           0
</event>
<event>
      6   9999 -3.45752E-01  3.32466E+00 -1.00000E+00  2.65738E-01
      21    -1     0     0   511   502  0.000000000E+00  0.000000000E+00  1.768149370E+02  1.768149370E+02  0.000000000E+00  0.00000E+00  9.000E+00
      21    -1     0     0   502   503  0.000000000E+00  0.000000000E+00 -1.274773487E+03  1.274773487E+03  0.000000000E+00  0.00000E+00  9.000E+00
      25     1     1     2     0     0 -4.903090509E+01 -1.834946037E+01 -1.902020534E+02  2.335427131E+02  1.249985813E+02  0.00000E+00  9.000E+00
       5     1     1     2   501     0  5.787327570E+00 -2.609056535E+00  2.065923939E+01  2.212842083E+01  4.750000000E+00  0.00000E+00  9.000E+00
      -5     1     1     2     0   503  4.603554478E+01  2.276358211E+01 -1.061519661E+03  1.062771851E+03  4.750000000E+00  0.00000E+00  9.000E+00
      21     1     1     2   511   501 -2.791967262E+00 -1.805065204E+00  1.331039251E+02  1.331454401E+02  2.697398305E-06  0.00000E+00  9.000E+00
#rwgt            1           9  -1.1874588581749420E-004           4      618943           0
</event>
<event>
      6   9999  3.45752E-01  1.62666E+01 -1.00000E+00  1.67376E-01
      21    -1     0     0   512   503  0.000000000E+00  0.000000000E+00  5.193675231E+01  5.193675231E+01  0.000000000E+00  0.00000E+00  9.000E+00
      21    -1     0     0   501   502  0.000000000E+00  0.000000000E+00 -1.566636406E+03  1.566636406E+03  0.000000000E+00  0.00000E+00  9.000E+00
      25     1     1     2     0     0  3.296919892E+01  2.461074834E+02 -9.857391667E+02  1.024188817E+03  1.250006644E+02  0.00000E+00  9.000E+00
       5     1     1     2   501     0 -4.809004106E+01 -6.288947235E+01 -1.591986565E+02  1.778609359E+02  4.750000000E+00  0.00000E+00  9.000E+00
      -5     1     1     2     0   503  2.771254706E+01 -1.729198371E+02 -3.314476680E+02  3.748991524E+02  4.750000000E+00  0.00000E+00  9.000E+00
      21     1     1     2   512   502 -1.259170492E+01 -1.029817394E+01 -3.831416293E+01  4.162425375E+01  4.768371582E-07  0.00000E+00  9.000E+00
#rwgt            1           9   2.3403422481319382E-003           4      626625           0
</event>
<event>
      6   9999  3.45752E-01  8.25977E+00 -1.00000E+00  1.96386E-01
      21    -1     0     0   501   511  0.000000000E+00  0.000000000E+00  4.224676837E+02  4.224676837E+02  0.000000000E+00  0.00000E+00  9.000E+00
      21    -1     0     0   502   503  0.000000000E+00  0.000000000E+00 -5.957320877E+02  5.957320877E+02  0.000000000E+00  0.00000E+00  9.000E+00
      25     1     1     2     0     0  3.004495970E+00 -2.396085867E+01 -5.145636924E+02  5.300789186E+02  1.249988667E+02  0.00000E+00  9.000E+00
       5     1     1     2   501     0  1.451013100E+01  1.133847078E+01  3.843534098E+02  3.848236102E+02  4.750000000E+00  0.00000E+00  9.000E+00
      -5     1     1     2     0   503 -9.723292803E+00  1.536443981E+01 -7.136922241E+01  7.380201109E+01  4.750000000E+00  0.00000E+00  9.000E+00
      21     1     1     2   502   511 -7.791334168E+00 -2.742051915E+00  2.831510098E+01  2.949523148E+01  5.840038640E-07  0.00000E+00  9.000E+00
#rwgt            1           9   1.4830065089683486E-003           4      629468           0
</event>
<event>
      6   9999 -3.45752E-01  5.22488E+00 -1.00000E+00  2.22783E-01
      21    -1     0     0   501   502  0.000000000E+00  0.000000000E+00  1.690652399E+01  1.690652399E+01  0.000000000E+00  0.00000E+00  9.000E+00
      21    -1     0     0   502   512  0.000000000E+00  0.000000000E+00 -1.356890523E+03  1.356890523E+03  0.000000000E+00  0.00000E+00  9.000E+00
      25     1     1     2     0     0  5.199690951E+00 -5.481384624E+01 -8.493997167E+02  8.603116990E+02  1.249989851E+02  0.00000E+00  9.000E+00
       5     1     1     2   501     0  3.641335989E+00  2.569546629E-01  8.943385586E+00  1.076438569E+01  4.750000000E+00  0.00000E+00  9.000E+00
      -5     1     1     2     0   503 -1.051301463E+01  4.960675662E+01 -4.680213866E+02  4.707843823E+02  4.750000000E+00  0.00000E+00  9.000E+00
      21     1     1     2   503   512  1.671987692E+00  4.950134957E+00 -3.150628104E+01  3.193657971E+01  3.371747881E-07  0.00000E+00  9.000E+00
#rwgt            1           9  -2.7075549417739564E-004           4      635381           0
</event>
<event>
      6   9999  3.45752E-01  1.57431E+01 -1.00000E+00  1.68571E-01
      21    -1     0     0   501   502  0.000000000E+00  0.000000000E+00  7.712216859E+01  7.712216859E+01  0.000000000E+00  0.00000E+00  9.000E+00
      21    -1     0     0   502   511  0.000000000E+00  0.000000000E+00 -4.811228357E+02  4.811228357E+02  0.000000000E+00  0.00000E+00  9.000E+00
      25     1     1     2     0     0  1.283024070E+00 -1.009806779E+01 -1.452906127E+00  1.254265339E+02  1.250043494E+02  0.00000E+00  9.000E+00
       5     1     1     2   501     0  4.232587930E-01 -1.010886713E+00  7.602212014E+00  9.030900700E+00  4.750000000E+00  0.00000E+00  9.000E+00
      -5     1     1     2     0   503  3.012873937E-02 -4.538116348E+00  5.051914763E+00  8.287324689E+00  4.750000000E+00  0.00000E+00  9.000E+00
      21     1     1     2   503   511 -1.736411603E+00  1.564707085E+01 -4.152018877E+02  4.155002449E+02  5.394796609E-06  0.00000E+00  9.000E+00
#rwgt            1           9   1.3416928909352468E-004           4      640305           0
</event>
<event>
      6   9999 -3.45752E-01  3.40152E+00 -1.00000E+00  2.63381E-01
      21    -1     0     0   501   502  0.000000000E+00  0.000000000E+00  1.165550488E+01  1.165550488E+01  0.000000000E+00  0.00000E+00  9.000E+00
      21    -1     0     0   512   503  0.000000000E+00  0.000000000E+00 -1.234987631E+03  1.234987631E+03  0.000000000E+00  0.00000E+00  9.000E+00
      25     1     1     2     0     0 -7.528953215E+00  2.816846729E+01 -6.799209462E+02  6.919305446E+02  1.250009514E+02  0.00000E+00  9.000E+00
       5     1     1     2   501     0  1.448520371E+00  5.347697870E-01  3.361376192E+00  6.020426887E+00  4.750000000E+00  0.00000E+00  9.000E+00
      -5     1     1     2     0   503  3.700174948E+00 -3.113320002E+01 -2.637797422E+02  2.656789084E+02  4.750000000E+00  0.00000E+00  9.000E+00
      21     1     1     2   512   502  2.380257896E+00  2.429962939E+00 -2.829928138E+02  2.830132559E+02  0.000000000E+00  0.00000E+00  9.000E+00
#rwgt            1           9  -2.9525868481043076E-004           4      641906           0
</event>
<event>
      6   9999  3.45752E-01  2.92592E+00 -1.00000E+00  2.79783E-01
       2    -1     0     0   501     0  0.000000000E+00  0.000000000E+00  1.638730198E+02  1.638730198E+02  0.000000000E+00  0.00000E+00  9.000E+00
      21    -1     0     0   502   503  0.000000000E+00  0.000000000E+00 -6.925656349E+02  6.925656349E+02  0.000000000E+00  0.00000E+00  9.000E+00
      25     1     1     2     0     0 -3.294746440E+00 -1.068806833E+01 -6.660564631E+02  6.777763350E+02  1.249978324E+02  0.00000E+00  9.000E+00
       5     1     1     2   501     0  1.424918968E-01 -7.596336327E-01 -2.477476343E+00  5.412738330E+00  4.750000000E+00  0.00000E+00  9.000E+00
      -5     1     1     2     0   503  1.327979806E+00  9.160124961E+00 -1.506910512E+01  1.831152230E+01  4.750000000E+00  0.00000E+00  9.000E+00
       2     1     1     2   502     0  1.824274738E+00  2.287577006E+00  1.549104295E+02  1.549380591E+02  3.303624740E-06  0.00000E+00  9.000E+00
#rwgt            1           9   6.1653152384441072E-005           4      647115           0
</event>
<event>
      6   9999  3.45752E-01  2.01556E+01 -1.00000E+00  1.59954E-01
      21    -1     0     0   511   503  0.000000000E+00  0.000000000E+00  7.930858120E+01  7.930858120E+01  0.000000000E+00  0.00000E+00  9.000E+00
      21    -1     0     0   501   502  0.000000000E+00  0.000000000E+00 -9.357704351E+01  9.357704351E+01  0.000000000E+00  0.00000E+00  9.000E+00
      25     1     1     2     0     0  3.444803964E+00  9.207341637E+00 -9.378289342E+00  1.257363927E+02  1.250001852E+02  0.00000E+00  9.000E+00
       5     1     1     2   501     0 -1.492342601E+00  2.663429178E+00  1.306393175E+00  5.795697072E+00  4.750000000E+00  0.00000E+00  9.000E+00
      -5     1     1     2     0   503 -1.969533164E+01 -2.308319060E+00 -5.776520867E+00  2.119351596E+01  4.750000000E+00  0.00000E+00  9.000E+00
      21     1     1     2   511   502  1.774287028E+01 -9.562451755E+00 -4.200452743E-01  2.016001903E+01  2.419431937E-07  0.00000E+00  9.000E+00
#rwgt            1           9  0.26868236457295680                4      652391           0
</event>
<event>
      6   9999  3.45752E-01  6.40232E+00 -1.00000E+00  2.10206E-01
      21    -1     0     0   501   502  0.000000000E+00  0.000000000E+00  5.982154188E+02  5.982154188E+02  0.000000000E+00  0.00000E+00  9.000E+00
      21    -1     0     0   502   512  0.000000000E+00  0.000000000E+00 -1.934697595E+02  1.934697595E+02  0.000000000E+00  0.00000E+00  9.000E+00
      25     1     1     2     0     0  2.878462747E+02 -2.153467389E+01  1.528212994E+02  3.497094814E+02  1.249926070E+02  0.00000E+00  9.000E+00
       5     1     1     2   501     0 -1.638052175E-01  3.705878527E+00  1.175886927E+02  1.177430402E+02  4.750000000E+00  0.00000E+00  9.000E+00
      -5     1     1     2     0   503 -2.833951255E+02  2.258362134E+01  1.388243092E+02  3.164136034E+02  4.750000000E+00  0.00000E+00  9.000E+00
      21     1     1     2   503   512 -4.287343905E+00 -4.754825969E+00 -4.488641977E+00  7.819053303E+00  5.960464478E-08  0.00000E+00  9.000E+00
#rwgt            1           9   2.9878074926821774E-004           4      653689           0
</event>
<event>
      6   9999  3.45752E-01  1.19540E+02 -1.00000E+00  1.17231E-01
      21    -1     0     0   501   502  0.000000000E+00  0.000000000E+00  6.570240287E+02  6.570240287E+02  0.000000000E+00  0.00000E+00  9.000E+00
      21    -1     0     0   502   511  0.000000000E+00  0.000000000E+00 -2.208357579E+03  2.208357579E+03  0.000000000E+00  0.00000E+00  9.000E+00
      25     1     1     2     0     0  8.946145737E+02 -4.786440422E+02 -2.383028332E+02  1.049689618E+03  1.249987957E+02  0.00000E+00  9.000E+00
       5     1     1     2   501     0 -3.077483964E+00 -3.576806871E+00  7.925763188E+01  7.953992184E+01  4.750000000E+00  0.00000E+00  9.000E+00
      -5     1     1     2     0   503 -8.307496068E+02  3.792899580E+02 -1.278003753E+03  1.570771128E+03  4.750000000E+00  0.00000E+00  9.000E+00
      21     1     1     2   503   511 -6.078748292E+01  1.029308911E+02 -1.142845961E+02  1.653809400E+02  0.000000000E+00  0.00000E+00  9.000E+00
#rwgt            1           9   1.1794142644578687E-003           4      659927           0
</event>
<event>
      6   9999  3.45752E-01  1.14295E+01 -1.00000E+00  1.81282E-01
      21    -1     0     0   512   502  0.000000000E+00  0.000000000E+00  8.536750188E+01  8.536750188E+01  0.000000000E+00  0.00000E+00  9.000E+00
      21    -1     0     0   502   503  0.000000000E+00  0.000000000E+00 -1.378377865E+03  1.378377865E+03  0.000000000E+00  0.00000E+00  9.000E+00
      25     1     1     2     0     0  6.187936055E+01 -4.827767873E+01 -4.163284003E+02  4.417176852E+02  1.250015482E+02  0.00000E+00  9.000E+00
       5     1     1     2   501     0 -6.496382237E+00 -5.285898635E+00  4.063452833E+01  4.175968270E+01  4.750000000E+00  0.00000E+00  9.000E+00
      -5     1     1     2     0   503 -6.656172293E+01  5.118276797E+01 -9.458235258E+02  9.495550764E+02  4.750000000E+00  0.00000E+00  9.000E+00
      21     1     1     2   512   501  1.117874462E+01  2.380809398E+00  2.850703465E+01  3.071292251E+01  1.430511475E-06  0.00000E+00  9.000E+00
#rwgt            1           9   8.6795383337167478E-002           4      661651           0
</event>
<event>
      6   9999  3.45752E-01  6.45909E+00 -1.00000E+00  2.09693E-01
      21    -1     0     0   501   502  0.000000000E+00  0.000000000E+00  3.090558428E+01  3.090558428E+01  0.000000000E+00  0.00000E+00  9.000E+00
      21    -1     0     0   511   503  0.000000000E+00  0.000000000E+00 -1.166244504E+03  1.166244504E+03  0.000000000E+00  0.00000E+00  9.000E+00
      25     1     1     2     0     0 -1.155377368E+01 -1.348039076E+01 -9.872079062E+02  9.952494069E+02  1.250068848E+02  0.00000E+00  9.000E+00
       5     1     1     2   501     0 -2.037949991E+00  4.611210101E+00  2.593788486E+01  2.684684096E+01  4.750000000E+00  0.00000E+00  9.000E+00
      -5     1     1     2     0   503  8.341497422E+00  5.106863336E+00 -1.366209919E+02  1.370529772E+02  4.750000000E+00  0.00000E+00  9.000E+00
      21     1     1     2   511   502  5.250226253E+00  3.762317320E+00 -3.744790658E+01  3.800086333E+01  6.743495762E-07  0.00000E+00  9.000E+00
#rwgt            1           9   1.7337689801057314E-002           4      665097           0
</event>
<event>
      6   9999  3.45752E-01  9.78879E+00 -1.00000E+00  1.88176E-01
      21    -1     0     0   501   502  0.000000000E+00  0.000000000E+00  3.195818778E+01  3.195818778E+01  0.000000000E+00  0.00000E+00  9.000E+00
      21    -1     0     0   512   503  0.000000000E+00  0.000000000E+00 -2.915567255E+02  2.915567255E+02  0.000000000E+00  0.00000E+00  9.000E+00
      25     1     1     2     0     0 -1.669031162E+01 -2.344714406E+00 -2.000591686E+02  2.364996484E+02  1.249973943E+02  0.00000E+00  9.000E+00
       5     1     1     2   501     0 -1.690503419E+00  2.716273044E+00  9.939432316E+00  1.147130140E+01  4.750000000E+00  0.00000E+00  9.000E+00
      -5     1     1     2     0   503  1.349023332E+01  8.107980521E+00 -2.444949449E+01  2.946296020E+01  4.750000000E+00  0.00000E+00  9.000E+00
      21     1     1     2   512   502  4.890581720E+00 -8.479539159E+00 -4.502930699E+01  4.608100326E+01  4.768371582E-07  0.00000E+00  9.000E+00
#rwgt            1           9  0.79829708846996783                4      669748           0
</event>
<event>
      6   9999  3.45752E-01  8.64999E+00 -1.00000E+00  1.94082E-01
      21    -1     0     0   511   502  0.000000000E+00  0.000000000E+00  1.616779493E+02  1.616779493E+02  0.000000000E+00  0.00000E+00  9.000E+00
      21    -1     0     0   502   503  0.000000000E+00  0.000000000E+00 -1.324059662E+02  1.324059662E+02  0.000000000E+00  0.00000E+00  9.000E+00
      25     1     1     2     0     0 -5.261383819E+00 -8.135525266E+00 -9.618555053E+01  1.580215731E+02  1.250011540E+02  0.00000E+00  9.000E+00
       5     1     1     2   501     0 -2.033025468E-01 -6.244790881E-02  2.293671895E+00  5.279077801E+00  4.750000000E+00  0.00000E+00  9.000E+00
      -5     1     1     2     0   503 -4.124604241E-01  1.851203290E+00 -1.873560494E+00  5.446999738E+00  4.750000000E+00  0.00000E+00  9.000E+00
      21     1     1     2   511   501  5.877146790E+00  6.346769885E+00  1.250374222E+02  1.253362648E+02  0.000000000E+00  0.00000E+00  9.000E+00
#rwgt            1           9   8.3599549924091724E-004           4      671931           0
</event>
<event>
      6   9999  3.45752E-01  8.91539E+00 -1.00000E+00  1.92603E-01
      21    -1     0     0   501   502  0.000000000E+00  0.000000000E+00  1.122829708E+01  1.122829708E+01  0.000000000E+00  0.00000E+00  9.000E+00
      21    -1     0     0   512   503  0.000000000E+00  0.000000000E+00 -9.859257426E+02  9.859257426E+02  0.000000000E+00  0.00000E+00  9.000E+00
      25     1     1     2     0     0  1.983969473E+01  4.705917425E+00 -5.166878485E+02  5.319837478E+02  1.249984641E+02  0.00000E+00  9.000E+00
       5     1     1     2   501     0 -1.812296126E-01 -1.257961663E+00  1.453847448E-01  4.919242670E+00  4.750000000E+00  0.00000E+00  9.000E+00
      -5     1     1     2     0   503 -2.750114736E+01 -7.687836647E+00 -2.158934998E+02  2.178255763E+02  4.750000000E+00  0.00000E+00  9.000E+00
      21     1     1     2   512   502  7.842682245E+00  4.239880885E+00 -2.422614820E+02  2.424254729E+02  3.814697266E-06  0.00000E+00  9.000E+00
#rwgt            1           9   6.1262961439377723E-004           4      674604           0
</event>
<event>
      6   9999  3.45752E-01  3.04845E+01 -1.00000E+00  1.47389E-01
      21    -1     0     0   501   511  0.000000000E+00  0.000000000E+00  1.865846910E+02  1.865846910E+02  0.000000000E+00  0.00000E+00  9.000E+00
      21    -1     0     0   502   503  0.000000000E+00  0.000000000E+00 -9.744510859E+02  9.744510859E+02  0.000000000E+00  0.00000E+00  9.000E+00
      25     1     1     2     0     0 -7.552909824E+01 -6.940174347E+01 -5.933689227E+02  6.150059604E+02  1.249976246E+02  0.00000E+00  9.000E+00
       5     1     1     2   501     0  8.844451324E+01  4.746636214E+01 -3.221027599E+02  3.374140452E+02  4.750000000E+00  0.00000E+00  9.000E+00
      -5     1     1     2     0   503  7.473510504E-01 -5.315869775E+00 -3.879221608E+01  3.944889775E+01  4.750000000E+00  0.00000E+00  9.000E+00
      21     1     1     2   502   511 -1.366276605E+01  2.725125111E+01  1.663975038E+02  1.691668736E+02  4.264961200E-06  0.00000E+00  9.000E+00
#rwgt            1           9   3.0245191489424384E-002           4      677223           0
</event>
<event>
      6   9999  3.45752E-01  3.78341E+01 -1.00000E+00  1.41603E-01
      21    -1     0     0   512   503  0.000000000E+00  0.000000000E+00  8.371352195E+01  8.371352195E+01  0.000000000E+00  0.00000E+00  9.000E+00
      21    -1     0     0   501   502  0.000000000E+00  0.000000000E+00 -1.630162402E+03  1.630162402E+03  0.000000000E+00  0.00000E+00  9.000E+00
      25     1     1     2     0     0 -7.836942535E+01 -6.564201593E+01 -1.373160550E+02  2.119703532E+02  1.250003623E+02  0.00000E+00  9.000E+00
       5     1     1     2   501     0 -2.688567362E+01  1.395306842E+01 -1.283222654E+03  1.283588902E+03  4.750000000E+00  0.00000E+00  9.000E+00
      -5     1     1     2     0   503  9.976397440E+01  8.912241169E+01 -7.068783446E+01  1.513769708E+02  4.750000000E+00  0.00000E+00  9.000E+00
      21     1     1     2   512   502  5.491124564E+00 -3.743346418E+01 -5.522233692E+01  6.693969811E+01  9.536743164E-07  0.00000E+00  9.000E+00
#rwgt            1           9   1.1681992471964671                4      678515           0
</event>
<event>
      6   9999 -3.45752E-01  5.15701E+01 -1.00000E+00  1.34073E-01
      21    -1     0     0   511   502  0.000000000E+00  0.000000000E+00  4.885763363E+01  4.885763363E+01  0.000000000E+00  0.00000E+00  9.000E+00
      21    -1     0     0   502   503  0.000000000E+00  0.000000000E+00 -3.443758871E+03  3.443758871E+03  0.000000000E+00  0.00000E+00  9.000E+00
      25     1     1     2     0     0 -1.366656531E+02 -3.274286332E+01 -3.047724978E+03  3.053522817E+03  1.249978216E+02  0.00000E+00  9.000E+00
       5     1     1     2   501     0 -4.302890674E+00 -2.958119472E+00  3.122888873E+01  3.201673516E+01  4.750000000E+00  0.00000E+00  9.000E+00
      -5     1     1     2     0   503  8.952189569E+01  3.926703067E+01 -2.650533454E+02  2.825454086E+02  4.750000000E+00  0.00000E+00  9.000E+00
      21     1     1     2   511   501  5.144664805E+01 -3.566047879E+00 -1.133518026E+02  1.245315439E+02  2.697398305E-06  0.00000E+00  9.000E+00
#rwgt            1           9  -3.8740982710531316E-005           4      680417           0
</event>
<event>
      6   9999  3.45752E-01  5.50262E+00 -1.00000E+00  2.19430E-01
       1    -1     0     0   501     0  0.000000000E+00  0.000000000E+00  5.179455852E+02  5.179455852E+02  0.000000000E+00  0.00000E+00  9.000E+00
      21    -1     0     0   502   503  0.000000000E+00  0.000000000E+00 -5.333933826E+02  5.333933826E+02  0.000000000E+00  0.00000E+00  9.000E+00
      25     1     1     2     0     0 -5.218462674E+00 -3.663280375E+01 -4.892880963E+02  5.063635746E+02  1.250281319E+02  0.00000E+00  9.000E+00
       5     1     1     2   501     0 -5.913777067E+00  2.191453880E+00  6.248721474E+01  6.298404349E+01  4.750000000E+00  0.00000E+00  9.000E+00
      -5     1     1     2     0   503  1.167377032E+01  3.991725711E+01 -2.289276131E+01  4.771064188E+01  4.750000000E+00  0.00000E+00  9.000E+00
       1     1     1     2   502     0 -5.415305748E-01 -5.475907240E+00  4.342458456E+02  4.342807079E+02  9.344061824E-06  0.00000E+00  9.000E+00
#rwgt            1           9   1.9871951946014109E-004           4      681720           0
</event>
<event>
      6   9999  3.45752E-01  1.54304E+01 -1.00000E+00  1.69313E-01
      21    -1     0     0   501   502  0.000000000E+00  0.000000000E+00  2.638293516E+01  2.638293516E+01  0.000000000E+00  0.00000E+00  9.000E+00
      21    -1     0     0   502   511  0.000000000E+00  0.000000000E+00 -1.961629651E+03  1.961629651E+03  0.000000000E+00  0.00000E+00  9.000E+00
      25     1     1     2     0     0 -4.534318496E+00 -3.133694895E+01 -1.320105850E+03  1.326388471E+03  1.249974262E+02  0.00000E+00  9.000E+00
       5     1     1     2   501     0  4.041280034E+00 -3.077490981E-01  2.173116285E+01  2.261045317E+01  4.750000000E+00  0.00000E+00  9.000E+00
      -5     1     1     2     0   503 -1.010000165E+01  2.042479648E+01 -5.661327245E+02  5.666109835E+02  4.750000000E+00  0.00000E+00  9.000E+00
      21     1     1     2   503   511  1.059304011E+01  1.121990157E+01 -7.073930420E+01  7.240267847E+01  0.000000000E+00  0.00000E+00  9.000E+00
#rwgt            1           9   4.0511091878109794E-005           4      686965           0
</event>
<event>
      6   9999  3.45752E-01  2.37940E+01 -1.00000E+00  1.54658E-01
      21    -1     0     0   501   512  0.000000000E+00  0.000000000E+00  2.275959288E+01  2.275959288E+01  0.000000000E+00  0.00000E+00  9.000E+00
      21    -1     0     0   502   503  0.000000000E+00  0.000000000E+00 -1.033829267E+03  1.033829267E+03  0.000000000E+00  0.00000E+00  9.000E+00
      25     1     1     2     0     0  1.369519173E+01  1.693585006E+01 -6.444521502E+02  6.568249334E+02  1.250041516E+02  0.00000E+00  9.000E+00
       5     1     1     2   501     0  5.604930061E+00  3.790960274E+00  1.225581152E+01  1.478357321E+01  4.750000000E+00  0.00000E+00  9.000E+00
      -5     1     1     2     0   503 -1.173604814E+01  1.832886393E+00 -3.335119187E+02  3.337571823E+02  4.750000000E+00  0.00000E+00  9.000E+00
      21     1     1     2   502   512 -7.564073648E+00 -2.255969673E+01 -4.536141714E+01  5.122317143E+01  6.743495762E-07  0.00000E+00  9.000E+00
#rwgt            1           9   3.8040592293172048E-003           4      689681           0
</event>
<event>
      6   9999  3.45752E-01  1.08250E+01 -1.00000E+00  1.83639E-01
      21    -1     0     0   501   502  0.000000000E+00  0.000000000E+00  1.007967813E+01  1.007967813E+01  0.000000000E+00  0.00000E+00  9.000E+00
      21    -1     0     0   511   503  0.000000000E+00  0.000000000E+00 -1.286374250E+03  1.286374250E+03  0.000000000E+00  0.00000E+00  9.000E+00
      25     1     1     2     0     0  6.260795829E-01 -1.723116004E+01 -6.662971987E+02  6.781397361E+02  1.249969593E+02  0.00000E+00  9.000E+00
       5     1     1     2   501     0 -1.876174172E+00 -5.786272611E-01  2.093775749E+00  5.549886117E+00  4.750000000E+00  0.00000E+00  9.000E+00
      -5     1     1     2     0   503 -2.974640872E+00  7.843211502E+00 -8.230946027E+01  8.287203512E+01  4.750000000E+00  0.00000E+00  9.000E+00
      21     1     1     2   511   502  4.224735461E+00  9.966575802E+00 -5.297816885E+02  5.298922706E+02  7.629394531E-06  0.00000E+00  9.000E+00
#rwgt            1           9   4.3116609675183801E-004           4      691222           0
</event>
<event>
      6   9999  3.45752E-01  7.62966E+00 -1.00000E+00  2.00484E-01
      -3    -1     0     0     0   502  0.000000000E+00  0.000000000E+00  3.939060106E+01  3.939060106E+01  0.000000000E+00  0.00000E+00  9.000E+00
      21    -1     0     0   502   503  0.000000000E+00  0.000000000E+00 -8.274989697E+02  8.274989697E+02  0.000000000E+00  0.00000E+00  9.000E+00
      25     1     1     2     0     0  3.914239628E+01 -3.221043388E+01 -6.071883699E+02  6.219912337E+02  1.250029560E+02  0.00000E+00  9.000E+00
       5     1     1     2   501     0  8.563851825E-01  7.039590252E-01 -7.850305830E-01  4.940417685E+00  4.750000000E+00  0.00000E+00  9.000E+00
      -5     1     1     2     0   503 -3.965311554E+01  3.912829683E+01 -2.057601620E+02  2.132210120E+02  4.750000000E+00  0.00000E+00  9.000E+00
      -3     1     1     2     0   501 -3.456659229E-01 -7.621821968E+00  2.562519387E+01  2.673690737E+01  1.430511475E-06  0.00000E+00  9.000E+00
#rwgt            1           9   1.9935146654015117E-004           4      693115           0
</event>
<event>
      6   9999  3.45752E-01  1.33479E+01 -1.00000E+00  1.74884E-01
      21    -1     0     0   501   511  0.000000000E+00  0.000000000E+00  7.891003143E+00  7.891003143E+00  0.000000000E+00  0.00000E+00  9.000E+00
      21    -1     0     0   502   503  0.000000000E+00  0.000000000E+00 -3.427121941E+03  3.427121941E+03  0.000000000E+00  0.00000E+00  9.000E+00
      25     1     1     2     0     0 -1.062049828E+01  1.086202610E+01 -1.712207781E+03  1.716831880E+03  1.250017563E+02  0.00000E+00  9.000E+00
       5     1     1     2   501     0  2.457613084E+00 -3.998652732E+00 -4.129664563E-02  6.677820839E+00  4.750000000E+00  0.00000E+00  9.000E+00
      -5     1     1     2     0   503  2.021821611E+01 -1.259360488E+01 -1.688660833E+03  1.688835500E+03  4.750000000E+00  0.00000E+00  9.000E+00
      21     1     1     2   502   511 -1.205533091E+01  5.730231516E+00 -1.832102709E+01  2.266774339E+01  1.702649219E-06  0.00000E+00  9.000E+00
#rwgt            1           9   5.4309674760672356E-004           4      696147           0
</event>
<event>
      6   9999 -3.45752E-01  9.68926E+00 -1.00000E+00  1.88649E-01
      21    -1     0     0   501   502  0.000000000E+00  0.000000000E+00  7.933235401E+01  7.933235401E+01  0.000000000E+00  0.00000E+00  9.000E+00
      21    -1     0     0   502   512  0.000000000E+00  0.000000000E+00 -5.656277970E+02  5.656277970E+02  0.000000000E+00  0.00000E+00  9.000E+00
      25     1     1     2     0     0 -8.082911729E+00 -6.693763378E+01 -4.804638577E+02  5.010158296E+02  1.250014508E+02  0.00000E+00  9.000E+00
       5     1     1     2   501     0  2.791720809E-01 -4.340720099E-01  4.280421509E+01  4.307005555E+01  4.750000000E+00  0.00000E+00  9.000E+00
      -5     1     1     2     0   503 -1.697416086E+00  6.547177572E+01 -1.706059182E+01  6.784586156E+01  4.750000000E+00  0.00000E+00  9.000E+00
      21     1     1     2   503   512  9.501155734E+00  1.899930073E+00 -3.157520858E+01  3.302840432E+01  3.371747881E-07  0.00000E+00  9.000E+00
#rwgt            1           9  -3.6750391352858002E-004           4      698773           0
</event>
<event>
      6   9999  3.45752E-01  5.10152E+00 -1.00000E+00  2.24366E-01
      21    -1     0     0   511   503  0.000000000E+00  0.000000000E+00  7.527065533E+00  7.527065533E+00  0.000000000E+00  0.00000E+00  9.000E+00
      21    -1     0     0   501   502  0.000000000E+00  0.000000000E+00 -9.153617789E+02  9.153617789E+02  0.000000000E+00  0.00000E+00  9.000E+00
      25     1     1     2     0     0  1.912334066E+01 -2.885308680E+00 -8.489389889E+02  8.583107540E+02  1.250036656E+02  0.00000E+00  9.000E+00
       5     1     1     2   501     0  2.262931012E-01 -2.025866090E-01 -1.534680646E+01  1.606795626E+01  4.750000000E+00  0.00000E+00  9.000E+00
      -5     1     1     2     0   503 -1.493799703E+01  5.260626171E-01 -2.736112267E+01  3.153750198E+01  4.750000000E+00  0.00000E+00  9.000E+00
      21     1     1     2   511   502 -4.411636725E+00  2.561832672E+00 -1.618779539E+01  1.697263223E+01  4.768371582E-07  0.00000E+00  9.000E+00
#rwgt            1           9   9.6140075076786609E-005           4      702115           0
</event>
<event>
      6   9999 -3.45752E-01  3.09556E+00 -1.00000E+00  2.73398E-01
      21    -1     0     0   501   502  0.000000000E+00  0.000000000E+00  1.300670780E+03  1.300670780E+03  0.000000000E+00  0.00000E+00  9.000E+00
      21    -1     0     0   512   503  0.000000000E+00  0.000000000E+00 -1.097499864E+01  1.097499864E+01  0.000000000E+00  0.00000E+00  9.000E+00
      25     1     1     2     0     0 -1.112778094E+00  1.223313758E-01  3.781469935E+02  3.982744067E+02  1.250044045E+02  0.00000E+00  9.000E+00
       5     1     1     2   501     0 -4.729516045E+00  1.237711975E+00  8.717896578E+02  8.718163053E+02  4.750000000E+00  0.00000E+00  9.000E+00
      -5     1     1     2     0   503  3.078794339E+00  3.480120844E-02  3.693041175E+01  3.736171834E+01  4.750000000E+00  0.00000E+00  9.000E+00
      21     1     1     2   512   502  2.763499799E+00 -1.394844559E+00  2.828718442E+00  4.193348365E+00  1.115100797E-07  0.00000E+00  9.000E+00
#rwgt            1           9  -1.6622696711033683E-004           4      706135           0
</event>
<event>
      6   9999  3.45752E-01  1.65340E+01 -1.00000E+00  1.66786E-01
      21    -1     0     0   501   502  0.000000000E+00  0.000000000E+00  2.969358646E+01  2.969358646E+01  0.000000000E+00  0.00000E+00  9.000E+00
      21    -1     0     0   511   503  0.000000000E+00  0.000000000E+00 -2.315200125E+03  2.315200125E+03  0.000000000E+00  0.00000E+00  9.000E+00
      25     1     1     2     0     0 -1.250436133E+01  1.786053110E+01 -1.342256351E+03  1.348239953E+03  1.249940065E+02  0.00000E+00  9.000E+00
       5     1     1     2   501     0  3.227299630E+00 -2.421295262E+00  2.597172620E+01  2.670900963E+01  4.750000000E+00  0.00000E+00  9.000E+00
      -5     1     1     2     0   503  1.423417678E+01  3.341666206E-01 -2.069689614E+02  2.075124983E+02  4.750000000E+00  0.00000E+00  9.000E+00
      21     1     1     2   511   502 -4.957115081E+00 -1.577340246E+01 -7.622529527E+02  7.624322508E+02  1.078959322E-05  0.00000E+00  9.000E+00
#rwgt            1           9   1.2110933091442802E-004           4      712311           0
</event>
<event>
      6   9999  3.45752E-01  1.54519E+01 -1.00000E+00  1.69262E-01
      21    -1     0     0   501   512  0.000000000E+00  0.000000000E+00  9.881452063E+01  9.881452063E+01  0.000000000E+00  0.00000E+00  9.000E+00
      21    -1     0     0   502   503  0.000000000E+00  0.000000000E+00 -1.736769590E+03  1.736769590E+03  0.000000000E+00  0.00000E+00  9.000E+00
      25     1     1     2     0     0 -1.057673006E+01  1.686517408E+02 -1.326379556E+03  1.342930833E+03  1.250008699E+02  0.00000E+00  9.000E+00
       5     1     1     2   501     0 -5.950226183E+00  8.114347028E+00  6.682464804E+01  6.774469651E+01  4.750000000E+00  0.00000E+00  9.000E+00
      -5     1     1     2     0   503  3.113931482E+01 -1.717422075E+02 -3.643328671E+02  4.040124296E+02  4.750000000E+00  0.00000E+00  9.000E+00
      21     1     1     2   502   512 -1.461235857E+01 -5.023880317E+00 -1.406729428E+01  2.089615192E+01  0.000000000E+00  0.00000E+00  9.000E+00
#rwgt            1           9   3.8755232434822362E-003           4      714996           0
</event>
<event>
      6   9999  3.45752E-01  9.62807E+00 -1.00000E+00  1.88944E-01
      21    -1     0     0   501   502  0.000000000E+00  0.000000000E+00  4.641756578E+03  4.641756578E+03  0.000000000E+00  0.00000E+00  9.000E+00
      21    -1     0     0   511   503  0.000000000E+00  0.000000000E+00 -6.782575779E+00  6.782575779E+00  0.000000000E+00  0.00000E+00  9.000E+00
      25     1     1     2     0     0  9.974679828E+00  1.306824537E+01  1.040839111E+03  1.048446933E+03  1.249985777E+02  0.00000E+00  9.000E+00
       5     1     1     2   501     0 -2.634036579E+00  2.373427763E+00  3.440145747E+03  3.440150854E+03  4.750000000E+00  0.00000E+00  9.000E+00
      -5     1     1     2     0   503 -3.240082561E+00 -6.730460401E+00  1.486862580E+02  1.489495319E+02  4.750000000E+00  0.00000E+00  9.000E+00
      21     1     1     2   511   502 -4.100560689E+00 -8.711212734E+00  5.302885827E+00  1.099183439E+01  1.781171894E-06  0.00000E+00  9.000E+00
#rwgt            1           9   6.3414344268231698E-002           4      718427           0
</event>
<event>
      6   9999  3.45752E-01  5.81378E+00 -1.00000E+00  2.15983E-01
      21    -1     0     0   501   502  0.000000000E+00  0.000000000E+00  3.781157734E+01  3.781157734E+01  0.000000000E+00  0.00000E+00  9.000E+00
      21    -1     0     0   502   512  0.000000000E+00  0.000000000E+00 -1.242110433E+03  1.242110433E+03  0.000000000E+00  0.00000E+00  9.000E+00
      25     1     1     2     0     0 -9.485969798E+01  1.031152853E+02 -2.855222014E+02  3.417280715E+02  1.249960919E+02  0.00000E+00  9.000E+00
       5     1     1     2   501     0 -6.434983620E+00 -5.567368921E+00 -2.057642581E+00  9.959970075E+00  4.750000000E+00  0.00000E+00  9.000E+00
      -5     1     1     2     0   503  9.659594166E+01 -1.009716478E+02 -8.869586686E+02  8.979110713E+02  4.750000000E+00  0.00000E+00  9.000E+00
      21     1     1     2   503   512  4.698739941E+00  3.423731399E+00 -2.976034354E+01  3.032289797E+01  0.000000000E+00  0.00000E+00  9.000E+00
#rwgt            1           9   6.7621024989399385E-006           4      720731           0
</event>
<event>
      6   9999  3.45752E-01  4.69236E+00 -1.00000E+00  2.34323E-01
      21    -1     0     0   501   502  0.000000000E+00  0.000000000E+00  1.309146630E+01  1.309146630E+01  0.000000000E+00  0.00000E+00  9.000E+00
      21    -1     0     0   502   511  0.000000000E+00  0.000000000E+00 -1.698459442E+03  1.698459442E+03  0.000000000E+00  0.00000E+00  9.000E+00
      25     1     1     2     0     0  9.555527970E+00 -2.208546086E+01 -1.428554849E+03  1.434215014E+03  1.249986889E+02  0.00000E+00  9.000E+00
       5     1     1     2   501     0  4.008782777E-01  2.684469910E+00  8.481604527E+00  1.009292809E+01  4.750000000E+00  0.00000E+00  9.000E+00
      -5     1     1     2     0   503 -1.292933592E+01  2.303140430E+01 -2.020463197E+02  2.038207327E+02  4.750000000E+00  0.00000E+00  9.000E+00
      21     1     1     2   503   511  2.972929671E+00 -3.630413351E+00 -6.324841161E+01  6.342223414E+01  6.743495762E-07  0.00000E+00  9.000E+00
#rwgt            1           9   2.0778462416751031E-003           4      726394           0
</event>
<event>
      6   9999  3.45752E-01  2.75562E+01 -1.00000E+00  1.50265E-01
      21    -1     0     0   501   512  0.000000000E+00  0.000000000E+00  1.001947081E+02  1.001947081E+02  0.000000000E+00  0.00000E+00  9.000E+00
      21    -1     0     0   502   503  0.000000000E+00  0.000000000E+00 -1.529769729E+03  1.529769729E+03  0.000000000E+00  0.00000E+00  9.000E+00
      25     1     1     2     0     0  2.645800592E+02 -1.568552788E+02 -1.053747979E+03  1.104814658E+03  1.249977615E+02  0.00000E+00  9.000E+00
       5     1     1     2   501     0 -1.767445426E-02  1.205845610E+00  1.702949612E+01  1.772062680E+01  4.750000000E+00  0.00000E+00  9.000E+00
      -5     1     1     2     0   503 -2.460610109E+02  1.352277386E+02 -3.887568515E+02  4.795696138E+02  4.750000000E+00  0.00000E+00  9.000E+00
      21     1     1     2   502   512 -1.850137388E+01  2.042169456E+01 -4.099686865E+00  2.785953834E+01  3.209808354E-07  0.00000E+00  9.000E+00
#rwgt            1           9   5.9937310706724020E-005           4      731802           0
</event>
<event>
      6   9999  3.45752E-01  1.83146E+01 -1.00000E+00  1.63185E-01
       2    -1     0     0   501     0  0.000000000E+00  0.000000000E+00  3.888182315E+02  3.888182315E+02  0.000000000E+00  0.00000E+00  9.000E+00
      21    -1     0     0   502   503  0.000000000E+00  0.000000000E+00 -2.728264017E+03  2.728264017E+03  0.000000000E+00  0.00000E+00  9.000E+00
      25     1     1     2     0     0 -1.370173654E+00  1.469750773E+01 -2.542538929E+03  2.545652401E+03  1.249961949E+02  0.00000E+00  9.000E+00
       5     1     1     2   501     0  3.159143160E+00  3.481319638E+00 -1.047852673E+01  1.242826595E+01  4.750000000E+00  0.00000E+00  9.000E+00
      -5     1     1     2     0   503  4.916134818E+00 -1.135810152E+00 -1.724282382E+02  1.725674311E+02  4.750000000E+00  0.00000E+00  9.000E+00
       2     1     1     2   502     0 -6.705104324E+00 -1.704301722E+01  3.859999086E+02  3.864341500E+02  0.000000000E+00  0.00000E+00  9.000E+00
#rwgt            1           9   4.9720644590516088                4      734109           0
</event>
<event>
      6   9999  3.45752E-01  1.47305E+01 -1.00000E+00  1.71057E-01
      21    -1     0     0   502   503  0.000000000E+00  0.000000000E+00  9.185493704E+00  9.185493704E+00  0.000000000E+00  0.00000E+00  9.000E+00
       2    -1     0     0   501     0  0.000000000E+00  0.000000000E+00 -3.286728052E+03  3.286728052E+03  0.000000000E+00  0.00000E+00  9.000E+00
      25     1     1     2     0     0  5.818131790E+01  2.558669565E+01 -6.003747433E+02  6.165269073E+02  1.249633960E+02  0.00000E+00  9.000E+00
       5     1     1     2   501     0 -5.336561149E+01 -1.277857120E+01 -9.668892782E+02  9.684568236E+02  4.750000000E+00  0.00000E+00  9.000E+00
      -5     1     1     2     0   503  2.655039992E+00 -1.126384481E-01 -2.494442707E+01  2.553133108E+01  4.750000000E+00  0.00000E+00  9.000E+00
       2     1     1     2   502     0 -7.470746403E+00 -1.269548601E+01 -1.685334110E+03  1.685398484E+03  0.000000000E+00  0.00000E+00  9.000E+00
#rwgt            1           9   1.2525025763528824E-002           4      735509           0
</event>
<event>
      6   9999  3.45752E-01  1.97368E+01 -1.00000E+00  1.60651E-01
      21    -1     0     0   501   502  0.000000000E+00  0.000000000E+00  3.595617454E+01  3.595617454E+01  0.000000000E+00  0.00000E+00  9.000E+00
      21    -1     0     0   502   511  0.000000000E+00  0.000000000E+00 -1.338206051E+03  1.338206051E+03  0.000000000E+00  0.00000E+00  9.000E+00
      25     1     1     2     0     0  1.279724248E+02 -7.612486152E+01 -6.441562467E+02  6.728543107E+02  1.249948689E+02  0.00000E+00  9.000E+00
       5     1     1     2   501     0  9.921098360E-01 -3.296892859E+00  1.202104201E+01  1.337616296E+01  4.750000000E+00  0.00000E+00  9.000E+00
      -5     1     1     2     0   503 -1.140353244E+02  6.651201923E+01 -5.196331214E+02  5.361614004E+02  4.750000000E+00  0.00000E+00  9.000E+00
      21     1     1     2   503   511 -1.492921020E+01  1.290973515E+01 -1.504815500E+02  1.517703511E+02  2.697398305E-06  0.00000E+00  9.000E+00
#rwgt            1           9   7.5717208769792639E-005           4      737483           0
</event>
<event>
      6   9999  3.45752E-01  1.95600E+01 -1.00000E+00  1.60951E-01
      21    -1     0     0   501   512  0.000000000E+00  0.000000000E+00  2.250944997E+01  2.250944997E+01  0.000000000E+00  0.00000E+00  9.000E+00
      21    -1     0     0   502   503  0.000000000E+00  0.000000000E+00 -8.155191888E+02  8.155191888E+02  0.000000000E+00  0.00000E+00  9.000E+00
      25     1     1     2     0     0 -6.795105491E+01 -3.104772127E+01 -5.601602076E+02  5.787809593E+02  1.250065351E+02  0.00000E+00  9.000E+00
       5     1     1     2   501     0  6.086194559E+00  1.018331924E+01 -5.686270980E+01  5.828097478E+01  4.750000000E+00  0.00000E+00  9.000E+00
      -5     1     1     2     0   503  4.391903516E+01  1.308355764E+01 -1.754511405E+02  1.813993559E+02  4.750000000E+00  0.00000E+00  9.000E+00
      21     1     1     2   502   512  1.794582520E+01  7.780844394E+00 -5.356808855E-01  1.956734871E+01  4.029517556E-07  0.00000E+00  9.000E+00
#rwgt            1           9   1.9292862380362380E-003           4      739542           0
</event>
<event>
      6   9999  3.45752E-01  9.72914E+00 -1.00000E+00  1.88459E-01
      21    -1     0     0   511   502  0.000000000E+00  0.000000000E+00  1.410428428E+02  1.410428428E+02  0.000000000E+00  0.00000E+00  9.000E+00
      21    -1     0     0   502   503  0.000000000E+00  0.000000000E+00 -1.579020413E+02  1.579020413E+02  0.000000000E+00  0.00000E+00  9.000E+00
      25     1     1     2     0     0 -5.201310987E+01 -6.164535027E+00  2.746723511E+01  1.383000606E+02  1.250163696E+02  0.00000E+00  9.000E+00
       5     1     1     2   501     0  4.686848217E-02 -1.658654013E-01  1.145348732E+01  1.240058788E+01  4.750000000E+00  0.00000E+00  9.000E+00
      -5     1     1     2     0   503  4.760712110E+01  1.502834442E+01 -9.522192390E+01  1.076200093E+02  4.750000000E+00  0.00000E+00  9.000E+00
      21     1     1     2   511   501  4.359120288E+00 -8.697943993E+00  3.944200294E+01  4.062422622E+01  4.768371582E-07  0.00000E+00  9.000E+00
#rwgt            1           9   4.0252793345301477E-004           4      741339           0
</event>
<event>
      6   9999  3.45752E-01  1.51100E+01 -1.00000E+00  1.70097E-01
      21    -1     0     0   501   502  0.000000000E+00  0.000000000E+00  4.007664823E+01  4.007664823E+01  0.000000000E+00  0.00000E+00  9.000E+00
      21    -1     0     0   502   512  0.000000000E+00  0.000000000E+00 -3.708782266E+02  3.708782266E+02  0.000000000E+00  0.00000E+00  9.000E+00
      25     1     1     2     0     0 -5.970634570E+00  5.957965865E+00 -3.088282110E+02  3.332745698E+02  1.250037163E+02  0.00000E+00  9.000E+00
       5     1     1     2   501     0 -6.011955896E+00  2.989973047E+00  2.386562608E+01  2.524310125E+01  4.750000000E+00  0.00000E+00  9.000E+00
      -5     1     1     2     0   503  4.065690387E+00  3.922021287E+00 -5.059520002E+00  8.948370351E+00  4.750000000E+00  0.00000E+00  9.000E+00
      21     1     1     2   503   512  7.916900079E+00 -1.286996020E+01 -4.077947345E+01  4.348883348E+01  4.768371582E-07  0.00000E+00  9.000E+00
#rwgt            1           9   2.8730201953850145E-005           4      744379           0
</event>
<event>
      6   9999  3.45752E-01  6.14254E+00 -1.00000E+00  2.12647E-01
      21    -1     0     0   501   502  0.000000000E+00  0.000000000E+00  2.014865674E+01  2.014865674E+01  0.000000000E+00  0.00000E+00  9.000E+00
       1    -1     0     0   502     0  0.000000000E+00  0.000000000E+00 -1.558293809E+03  1.558293809E+03  0.000000000E+00  0.00000E+00  9.000E+00
      25     1     1     2     0     0  8.779246297E+00 -3.818808326E+00 -5.233782088E+02  5.381835432E+02  1.250004729E+02  0.00000E+00  9.000E+00
       5     1     1     2   501     0 -1.572360008E-01 -2.663362446E+00  1.199440912E+01  1.317370763E+01  4.750000000E+00  0.00000E+00  9.000E+00
      -5     1     1     2     0   503 -9.202015124E+00  1.259726526E+01 -4.571865446E+02  4.574772861E+02  4.750000000E+00  0.00000E+00  9.000E+00
       1     1     1     2   503     0  5.800048274E-01 -6.115094487E+00 -5.695748078E+02  5.696079287E+02  0.000000000E+00  0.00000E+00  9.000E+00
#rwgt            1           9   3.2510096290603923E-004           4      746487           0
</event>
<event>
      6   9999  3.45752E-01  8.52211E+00 -1.00000E+00  1.94819E-01
      21    -1     0     0   501   502  0.000000000E+00  0.000000000E+00  5.055718368E+02  5.055718368E+02  0.000000000E+00  0.00000E+00  9.000E+00
      21    -1     0     0   502   511  0.000000000E+00  0.000000000E+00 -1.898090834E+02  1.898090834E+02  0.000000000E+00  0.00000E+00  9.000E+00
      25     1     1     2     0     0 -4.756175086E+01 -1.862060328E+01  2.744086522E+02  3.058126860E+02  1.249497641E+02  0.00000E+00  9.000E+00
       5     1     1     2   501     0  1.655912978E+00 -4.005128011E+00  1.907556230E+02  1.908639655E+02  4.750000000E+00  0.00000E+00  9.000E+00
      -5     1     1     2     0   503  4.730351891E+01  1.421901763E+01 -5.665013871E-01  4.962546511E+01  4.750000000E+00  0.00000E+00  9.000E+00
      21     1     1     2   503   511 -1.397681026E+00  8.406713666E+00 -1.488350205E+02  1.490788036E+02  2.697398305E-06  0.00000E+00  9.000E+00
#rwgt            1           9   2.9834217028775883E-004           4      751129           0
</event>
<event>
      6   9999  3.45752E-01  1.27413E+01 -1.00000E+00  1.76752E-01
      21    -1     0     0   501   502  0.000000000E+00  0.000000000E+00  1.420918229E+01  1.420918229E+01  0.000000000E+00  0.00000E+00  9.000E+00
      21    -1     0     0   502   512  0.000000000E+00  0.000000000E+00 -1.527919639E+03  1.527919639E+03  0.000000000E+00  0.00000E+00  9.000E+00
      25     1     1     2     0     0 -2.194971840E+01 -3.099216825E+01 -5.123267903E+02  5.287203394E+02  1.249966103E+02  0.00000E+00  9.000E+00
       5     1     1     2   501     0 -2.244714919E+00  4.870706846E-01  3.052362681E+00  6.095523017E+00  4.750000000E+00  0.00000E+00  9.000E+00
      -5     1     1     2     0   503  1.820875933E+01  4.175285874E+01 -3.804109368E+02  3.831578049E+02  4.750000000E+00  0.00000E+00  9.000E+00
      21     1     1     2   503   512  5.985673987E+00 -1.124776117E+01 -6.240250918E+02  6.241551535E+02  0.000000000E+00  0.00000E+00  9.000E+00
#rwgt            1           9   2.6528602479859347E-003           4      754259           0
</event>
<event>
      6   9999  3.45752E-01  1.12149E+01 -1.00000E+00  1.82097E-01
      21    -1     0     0   501   502  0.000000000E+00  0.000000000E+00  2.730060412E+01  2.730060412E+01  0.000000000E+00  0.00000E+00  9.000E+00
      21    -1     0     0   502   511  0.000000000E+00  0.000000000E+00 -1.698656060E+03  1.698656060E+03  0.000000000E+00  0.00000E+00  9.000E+00
      25     1     1     2     0     0  1.790843877E+01  2.894983802E+01 -7.071499147E+02  7.189167034E+02  1.249856762E+02  0.00000E+00  9.000E+00
       5     1     1     2   501     0 -2.029217559E+00 -5.926236744E+00  1.954767794E+01  2.106922445E+01  4.750000000E+00  0.00000E+00  9.000E+00
      -5     1     1     2     0   503 -2.709250703E+01 -2.283522891E+01 -2.995601375E+02  3.016857472E+02  4.750000000E+00  0.00000E+00  9.000E+00
      21     1     1     2   503   511  1.121328582E+01 -1.883723661E-01 -6.841930822E+02  6.842849896E+02  0.000000000E+00  0.00000E+00  9.000E+00
#rwgt            1           9   2.5034765031496579E-003           4      756626           0
</event>
<event>
      6   9999  3.45752E-01  1.32724E+01 -1.00000E+00  1.75109E-01
      21    -1     0     0   512   502  0.000000000E+00  0.000000000E+00  1.073068885E+02  1.073068885E+02  0.000000000E+00  0.00000E+00  9.000E+00
      21    -1     0     0   502   503  0.000000000E+00  0.000000000E+00 -4.157911958E+02  4.157911958E+02  0.000000000E+00  0.00000E+00  9.000E+00
      25     1     1     2     0     0 -1.823775517E+01  8.097143298E+00 -2.173873830E+02  2.515717581E+02  1.250315790E+02  0.00000E+00  9.000E+00
       5     1     1     2   501     0 -3.315509373E+00 -2.898896416E+00  7.558430909E+01  7.586136357E+01  4.750000000E+00  0.00000E+00  9.000E+00
      -5     1     1     2     0   503  1.142924567E+01  3.384345201E+00 -1.778538254E+02  1.783160878E+02  4.750000000E+00  0.00000E+00  9.000E+00
      21     1     1     2   512   501  1.012401887E+01 -8.582592083E+00  1.117259209E+01  1.734887486E+01  2.064765462E-07  0.00000E+00  9.000E+00
#rwgt            1           9  0.81501338955385960                4      759515           0
</event>
<event>
      6   9999  3.45752E-01  4.22203E+00 -1.00000E+00  2.43092E-01
      21    -1     0     0   501   511  0.000000000E+00  0.000000000E+00  2.558133731E+00  2.558133731E+00  0.000000000E+00  0.00000E+00  9.000E+00
      21    -1     0     0   502   503  0.000000000E+00  0.000000000E+00 -2.758551098E+03  2.758551098E+03  0.000000000E+00  0.00000E+00  9.000E+00
      25     1     1     2     0     0 -9.675988009E-01  2.971382703E+00 -2.676193339E+03  2.679112946E+03  1.250024944E+02  0.00000E+00  9.000E+00
       5     1     1     2   501     0 -4.662540511E-01  2.694185063E-02 -1.746431509E+01  1.810477617E+01  4.750000000E+00  0.00000E+00  9.000E+00
      -5     1     1     2     0   503  1.817063481E+00  1.206280194E+00 -5.620768393E+01  5.645018215E+01  4.750000000E+00  0.00000E+00  9.000E+00
      21     1     1     2   502   511 -3.832106289E-01 -4.204604748E+00 -6.127625948E+00  7.441327250E+00  6.529361695E-07  0.00000E+00  9.000E+00
#rwgt            1           9   4.2018127290906490E-003           4      762475           0
</event>
<event>
      6   9999  3.45752E-01  1.24262E+01 -1.00000E+00  1.77775E-01
      21    -1     0     0   501   512  0.000000000E+00  0.000000000E+00  2.163174752E+02  2.163174752E+02  0.000000000E+00  0.00000E+00  9.000E+00
      21    -1     0     0   502   503  0.000000000E+00  0.000000000E+00 -1.898464068E+02  1.898464068E+02  0.000000000E+00  0.00000E+00  9.000E+00
      25     1     1     2     0     0 -6.832252256E+00  4.195812573E+01 -6.599360986E+01  1.476115480E+02  1.250073941E+02  0.00000E+00  9.000E+00
       5     1     1     2   501     0 -6.764260304E-01 -4.219599605E+00  8.030084908E+01  8.055464875E+01  4.750000000E+00  0.00000E+00  9.000E+00
      -5     1     1     2     0   503  1.894530779E+01 -4.259791907E+01 -7.582402701E+01  8.913670943E+01  4.750000000E+00  0.00000E+00  9.000E+00
      21     1     1     2   502   512 -1.143662951E+01  4.859392941E+00  8.798785619E+01  8.886097586E+01  1.348699152E-06  0.00000E+00  9.000E+00
#rwgt            1           9   1.7484839530619120E-004           4      766338           0
</event>
<event>
      6   9999  3.45752E-01  2.32205E+01 -1.00000E+00  1.55414E-01
      21    -1     0     0   501   502  0.000000000E+00  0.000000000E+00  2.535284710E+03  2.535284710E+03  0.000000000E+00  0.00000E+00  9.000E+00
      21    -1     0     0   511   503  0.000000000E+00  0.000000000E+00 -1.296011949E+01  1.296011949E+01  0.000000000E+00  0.00000E+00  9.000E+00
      25     1     1     2     0     0 -8.247662236E+01  3.726858672E+01  8.540684775E+02  8.678993027E+02  1.249995782E+02  0.00000E+00  9.000E+00
       5     1     1     2   501     0 -3.524132932E+00  1.328047260E+00  1.163286728E+03  1.163302522E+03  4.750000000E+00  0.00000E+00  9.000E+00
      -5     1     1     2     0   503  7.631803148E+01 -1.749130177E+01  4.577591383E+02  4.644312422E+02  4.750000000E+00  0.00000E+00  9.000E+00
      21     1     1     2   511   502  9.682723809E+00 -2.110533221E+01  4.721024698E+01  5.261176302E+01  2.132480600E-06  0.00000E+00  9.000E+00
#rwgt            1           9  0.33938365890594069                4      771222           0
</event>
<event>
      6   9999  3.45752E-01  9.65493E+00 -1.00000E+00  1.88815E-01
      21    -1     0     0   501   512  0.000000000E+00  0.000000000E+00  1.220546666E+01  1.220546666E+01  0.000000000E+00  0.00000E+00  9.000E+00
      21    -1     0     0   502   503  0.000000000E+00  0.000000000E+00 -7.228254276E+02  7.228254276E+02  0.000000000E+00  0.00000E+00  9.000E+00
      25     1     1     2     0     0  1.422332412E+01  1.339816337E+01 -6.517318115E+02  6.638989739E+02  1.250027190E+02  0.00000E+00  9.000E+00
       5     1     1     2   501     0 -1.135580151E+01 -3.537108523E+00 -3.516736776E+01  3.742688365E+01  4.750000000E+00  0.00000E+00  9.000E+00
      -5     1     1     2     0   503 -5.471213645E-01 -4.891069856E-01 -2.356363874E+01  2.404882820E+01  4.750000000E+00  0.00000E+00  9.000E+00
      21     1     1     2   502   512 -2.320401242E+00 -9.371947863E+00 -1.571429948E-01  9.656208499E+00  4.402349102E-07  0.00000E+00  9.000E+00
#rwgt            1           9   4.0726639554489177E-003           4      773292           0
</event>
<event>
      6   9999  3.45752E-01  2.04863E+01 -1.00000E+00  1.59418E-01
       1    -1     0     0   501     0  0.000000000E+00  0.000000000E+00  3.108085051E+03  3.108085051E+03  0.000000000E+00  0.00000E+00  9.000E+00
      21    -1     0     0   502   503  0.000000000E+00  0.000000000E+00 -8.679406691E+01  8.679406691E+01  0.000000000E+00  0.00000E+00  9.000E+00
      25     1     1     2     0     0  1.515873298E+01 -1.547378363E+01 -3.672316233E+01  1.320761916E+02  1.250052182E+02  0.00000E+00  9.000E+00
       5     1     1     2   501     0  8.474209641E-01 -9.248408320E-01  7.318458832E+00  8.814521685E+00  4.750000000E+00  0.00000E+00  9.000E+00
      -5     1     1     2     0   503  4.358877083E-01  4.177794893E+00  4.623914322E+00  7.847741836E+00  4.750000000E+00  0.00000E+00  9.000E+00
       1     1     1     2   502     0 -1.644204165E+01  1.222082957E+01  3.046071773E+03  3.046140663E+03  4.315837288E-05  0.00000E+00  9.000E+00
#rwgt            1           9  0.12744089441972006                4      775519           0
</event>
<event>
      6   9999  3.45752E-01  1.87393E+01 -1.00000E+00  1.62399E-01
      21    -1     0     0   501   511  0.000000000E+00  0.000000000E+00  3.581246484E+01  3.581246484E+01  0.000000000E+00  0.00000E+00  9.000E+00
      21    -1     0     0   502   503  0.000000000E+00  0.000000000E+00 -1.619711886E+03  1.619711886E+03  0.000000000E+00  0.00000E+00  9.000E+00
      25     1     1     2     0     0 -1.440618148E+02  5.135472513E+01 -1.082174870E+03  1.100054150E+03  1.250022822E+02  0.00000E+00  9.000E+00
       5     1     1     2   501     0  2.569958776E+00 -3.941958335E+00  9.072154457E+00  1.126988066E+01  4.750000000E+00  0.00000E+00  9.000E+00
      -5     1     1     2     0   503  1.600860280E+02 -4.974077629E+01 -4.760024144E+02  5.046806339E+02  4.750000000E+00  0.00000E+00  9.000E+00
      21     1     1     2   502   511 -1.859417206E+01  2.328009494E+00 -3.479429121E+01  3.951968577E+01  0.000000000E+00  0.00000E+00  9.000E+00
#rwgt            1           9   3.2467158942160790E-005           4      776706           0
</event>
<event>
      6   9999 -3.45752E-01  6.60022E+01 -1.00000E+00  1.28637E-01
      21    -1     0     0   512   503  0.000000000E+00  0.000000000E+00  6.733741366E+01  6.733741366E+01  0.000000000E+00  0.00000E+00  9.000E+00
      21    -1     0     0   501   502  0.000000000E+00  0.000000000E+00 -1.239111282E+03  1.239111282E+03  0.000000000E+00  0.00000E+00  9.000E+00
      25     1     1     2     0     0  2.557208247E+01 -8.334734751E+01 -1.107820750E+03  1.118253619E+03  1.249945275E+02  0.00000E+00  9.000E+00
       5     1     1     2   501     0 -3.022049575E+01  4.813428218E+01 -5.846463373E+01  8.167535357E+01  4.750000000E+00  0.00000E+00  9.000E+00
      -5     1     1     2     0   503 -3.654655616E+01 -1.635503184E+01 -4.048321069E-01  4.032200668E+01  4.750000000E+00  0.00000E+00  9.000E+00
      21     1     1     2   512   502  4.119496944E+01  5.156809717E+01 -5.083653311E+00  6.619771661E+01  1.163436252E-06  0.00000E+00  9.000E+00
#rwgt            1           9  -1.0553798682311913E-003           4      779240           0
</event>
<event>
      6   9999  3.45752E-01  6.65271E+00 -1.00000E+00  2.07996E-01
      21    -1     0     0   501   502  0.000000000E+00  0.000000000E+00  1.294069338E+01  1.294069338E+01  0.000000000E+00  0.00000E+00  9.000E+00
      21    -1     0     0   502   511  0.000000000E+00  0.000000000E+00 -9.047284938E+02  9.047284938E+02  0.000000000E+00  0.00000E+00  9.000E+00
      25     1     1     2     0     0 -1.388715880E+01 -4.461474814E+01 -7.031784734E+02  7.157309133E+02  1.250097826E+02  0.00000E+00  9.000E+00
       5     1     1     2   501     0  5.642416676E-01  3.237836795E-01  2.006960369E+00  5.197460385E+00  4.750000000E+00  0.00000E+00  9.000E+00
      -5     1     1     2     0   503  9.784385324E+00  3.865737737E+01 -1.385914168E+02  1.442923087E+02  4.750000000E+00  0.00000E+00  9.000E+00
      21     1     1     2   503   511  3.538531805E+00  5.633587092E+00 -5.202487050E+01  5.244850486E+01  0.000000000E+00  0.00000E+00  9.000E+00
#rwgt            1           9   1.0326166352334250E-005           4      780091           0
</event>
<event>
      6   9999  3.45752E-01  7.07540E+00 -1.00000E+00  2.04547E-01
      21    -1     0     0   501   502  0.000000000E+00  0.000000000E+00  3.676095461E+03  3.676095461E+03  0.000000000E+00  0.00000E+00  9.000E+00
      21    -1     0     0   502   512  0.000000000E+00  0.000000000E+00 -3.086955051E+01  3.086955051E+01  0.000000000E+00  0.00000E+00  9.000E+00
      25     1     1     2     0     0 -9.963079532E+00 -4.965738206E+00  5.102154961E+02  5.254246752E+02  1.250092611E+02  0.00000E+00  9.000E+00
       5     1     1     2   501     0  2.109643309E+00  4.720135537E+00  3.107464230E+03  3.107472161E+03  4.750000000E+00  0.00000E+00  9.000E+00
      -5     1     1     2     0   503  9.788590158E+00 -6.560018611E+00  4.944685096E+01  5.105295203E+01  4.750000000E+00  0.00000E+00  9.000E+00
      21     1     1     2   503   512 -1.935153934E+00  6.805621281E+00 -2.190066643E+01  2.301522304E+01  1.846782373E-06  0.00000E+00  9.000E+00
#rwgt            1           9   5.5647353049023053E-002           4      783694           0
</event>
<event>
      6   9999  3.45752E-01  1.35297E+01 -1.00000E+00  1.74348E-01
      21    -1     0     0   501   502  0.000000000E+00  0.000000000E+00  5.185794144E+01  5.185794144E+01  0.000000000E+00  0.00000E+00  9.000E+00
      21    -1     0     0   511   503  0.000000000E+00  0.000000000E+00 -1.617887822E+02  1.617887822E+02  0.000000000E+00  0.00000E+00  9.000E+00
      25     1     1     2     0     0 -1.568946318E+01  1.498640252E+01 -9.262026557E+01  1.570805808E+02  1.250001750E+02  0.00000E+00  9.000E+00
       5     1     1     2   501     0 -2.938999639E+00 -3.648024717E-01  1.411020359E+01  1.517995867E+01  4.750000000E+00  0.00000E+00  9.000E+00
      -5     1     1     2     0   503  5.730024025E+00 -1.053714952E+01 -1.934021354E+01  2.324803336E+01  4.750000000E+00  0.00000E+00  9.000E+00
      21     1     1     2   511   502  1.289843880E+01 -4.084450533E+00 -1.208056523E+01  1.813815084E+01  2.384185791E-07  0.00000E+00  9.000E+00
#rwgt            1           9   7.6793125772973625E-003           4      787201           0
</event>
<event>
      6   9999  3.45752E-01  5.61247E+01 -1.00000E+00  1.32156E-01
      21    -1     0     0   501   502  0.000000000E+00  0.000000000E+00  4.989189876E+02  4.989189876E+02  0.000000000E+00  0.00000E+00  9.000E+00
      21    -1     0     0   512   503  0.000000000E+00  0.000000000E+00 -3.749153682E+01  3.749153682E+01  0.000000000E+00  0.00000E+00  9.000E+00
      25     1     1     2     0     0 -5.438782766E+00 -6.799212086E+01  3.603829575E+02  3.874961440E+02  1.249995070E+02  0.00000E+00  9.000E+00
       5     1     1     2   501     0 -1.757279137E+01  1.783504515E+01  7.231149510E+01  7.667076794E+01  4.750000000E+00  0.00000E+00  9.000E+00
      -5     1     1     2     0   503  7.221125122E-02 -1.065609365E+00  1.311038946E+01  1.398519036E+01  4.750000000E+00  0.00000E+00  9.000E+00
      21     1     1     2   512   502  2.293936289E+01  5.122268508E+01  1.562260870E+01  5.825842204E+01  5.840038640E-07  0.00000E+00  9.000E+00
#rwgt            1           9   7.5694927724936183E-003           4      789284           0
</event>
<event>
      6   9999  3.45752E-01  2.59834E+01 -1.00000E+00  1.51993E-01
      21    -1     0     0   501   502  0.000000000E+00  0.000000000E+00  5.929999312E+01  5.929999312E+01  0.000000000E+00  0.00000E+00  9.000E+00
      21    -1     0     0   502   511  0.000000000E+00  0.000000000E+00 -1.466904532E+03  1.466904532E+03  0.000000000E+00  0.00000E+00  9.000E+00
      25     1     1     2     0     0 -1.387519158E+01  1.250098385E+01 -2.306369134E+02  2.629967761E+02  1.250004916E+02  0.00000E+00  9.000E+00
       5     1     1     2   501     0 -1.251066719E-01 -2.181632582E+00  4.042326452E+01  4.076000474E+01  4.750000000E+00  0.00000E+00  9.000E+00
      -5     1     1     2     0   503  3.755518167E+01  6.490528714E-01 -1.143409183E+03  1.144035810E+03  4.750000000E+00  0.00000E+00  9.000E+00
      21     1     1     2   503   511 -2.355488342E+01 -1.096840414E+01 -7.398170756E+01  7.841193452E+01  9.536743164E-07  0.00000E+00  9.000E+00
#rwgt            1           9   6.2957313787582818E-004           4      790234           0
</event>
<event>
      6   9999  3.45752E-01  4.67611E+00 -1.00000E+00  2.34600E-01
      21    -1     0     0   501   502  0.000000000E+00  0.000000000E+00  2.172286600E+02  2.172286600E+02  0.000000000E+00  0.00000E+00  9.000E+00
      21    -1     0     0   512   503  0.000000000E+00  0.000000000E+00 -5.022224490E+02  5.022224490E+02  0.000000000E+00  0.00000E+00  9.000E+00
      25     1     1     2     0     0 -6.861821623E+01  4.460679241E+00 -1.673334682E+02  2.198930466E+02  1.249964202E+02  0.00000E+00  9.000E+00
       5     1     1     2   501     0  3.417688020E+00 -1.289459812E+01  1.819785056E+02  1.825286012E+02  4.750000000E+00  0.00000E+00  9.000E+00
      -5     1     1     2     0   503  6.642529620E+01  3.921057716E+00 -1.197334885E+02  1.370633628E+02  4.750000000E+00  0.00000E+00  9.000E+00
      21     1     1     2   512   502 -1.224767984E+00  4.512861166E+00 -1.799053379E+02  1.799660984E+02  1.907348633E-06  0.00000E+00  9.000E+00
#rwgt            1           9   1.8861851905294726E-004           4      792469           0
</event>
<event>
      6   9999  3.45752E-01  2.02367E+02 -1.00000E+00  1.08717E-01
      -3    -1     0     0     0   502  0.000000000E+00  0.000000000E+00  6.176505966E+01  6.176505966E+01  0.000000000E+00  0.00000E+00  9.000E+00
      21    -1     0     0   501   511  0.000000000E+00  0.000000000E+00 -1.486313952E+03  1.486313952E+03  0.000000000E+00  0.00000E+00  9.000E+00
      25     1     1     2     0     0  5.319636392E+01  2.174405706E+02 -6.426890264E+02  6.919423334E+02  1.249990129E+02  0.00000E+00  9.000E+00
       5     1     1     2   501     0 -7.861417136E+00  7.138315541E+00 -1.055438175E+02  1.061829428E+02  4.750000000E+00  0.00000E+00  9.000E+00
      -5     1     1     2     0   502  2.039491833E+01 -3.318432889E+01 -4.272091090E+02  4.290073865E+02  4.750000000E+00  0.00000E+00  9.000E+00
      -3     1     1     2     0   511 -6.572986512E+01 -1.913945572E+02 -2.491069400E+02  3.209463495E+02  7.136645101E-06  0.00000E+00  9.000E+00
#rwgt            1           7   2.2150040031006455E-006           4      798704           0
</event>
<event>
      6   9999  3.45752E-01  1.12517E+01 -1.00000E+00  1.81955E-01
      21    -1     0     0   512   502  0.000000000E+00  0.000000000E+00  1.246911549E+02  1.246911549E+02  0.000000000E+00  0.00000E+00  9.000E+00
      21    -1     0     0   502   503  0.000000000E+00  0.000000000E+00 -1.151658457E+03  1.151658457E+03  0.000000000E+00  0.00000E+00  9.000E+00
      25     1     1     2     0     0  4.093688914E+00  2.308166167E+01 -9.691519959E+02  9.774616658E+02  1.250047823E+02  0.00000E+00  9.000E+00
       5     1     1     2   501     0  2.130393886E+00 -6.965539303E+00  2.688958748E+01  2.826074541E+01  4.750000000E+00  0.00000E+00  9.000E+00
      -5     1     1     2     0   503  3.613054369E+00 -1.065426556E+01 -1.771145578E+02  1.775350575E+02  4.750000000E+00  0.00000E+00  9.000E+00
      21     1     1     2   512   501 -9.837137168E+00 -5.461856807E+00  9.240966401E+01  9.309214333E+01  4.264961200E-06  0.00000E+00  9.000E+00
#rwgt            1           9   3.6725174396834960E-002           4      799561           0
</event>
<event>
      6   9999  3.45752E-01  6.20775E+00 -1.00000E+00  2.12019E-01
      21    -1     0     0   511   502  0.000000000E+00  0.000000000E+00  1.472612625E+01  1.472612625E+01  0.000000000E+00  0.00000E+00  9.000E+00
      21    -1     0     0   502   503  0.000000000E+00  0.000000000E+00 -6.615668480E+02  6.615668480E+02  0.000000000E+00  0.00000E+00  9.000E+00
      25     1     1     2     0     0 -3.637568941E+00  2.447995161E+00 -6.175519337E+02  6.300908158E+02  1.249992829E+02  0.00000E+00  9.000E+00
       5     1     1     2   501     0 -1.067623553E-02  1.526324034E-01 -3.665654492E+00  6.001910820E+00  4.750000000E+00  0.00000E+00  9.000E+00
      -5     1     1     2     0   503 -2.273880723E+00 -7.393040841E-01 -3.132385858E+01  3.177205880E+01  4.750000000E+00  0.00000E+00  9.000E+00
      21     1     1     2   511   501  5.922125900E+00 -1.861323480E+00  5.700725067E+00  8.428188807E+00  5.127385418E-07  0.00000E+00  9.000E+00
#rwgt            1           9   1.0434450792501635E-004           4      803136           0
</event>
<event>
      6   9999  3.45752E-01  3.65485E+00 -1.00000E+00  2.56251E-01
      21    -1     0     0   501   512  0.000000000E+00  0.000000000E+00  1.112710776E+01  1.112710776E+01  0.000000000E+00  0.00000E+00  9.000E+00
      21    -1     0     0   502   503  0.000000000E+00  0.000000000E+00 -1.778641609E+03  1.778641609E+03  0.000000000E+00  0.00000E+00  9.000E+00
      25     1     1     2     0     0 -3.912804856E+00  8.525943112E+00 -1.635367471E+03  1.640164346E+03  1.249972512E+02  0.00000E+00  9.000E+00
       5     1     1     2   501     0 -3.343121300E-01 -1.234444088E-01 -1.360283247E+01  1.441272196E+01  4.750000000E+00  0.00000E+00  9.000E+00
      -5     1     1     2     0   503  3.082701272E+00 -1.186689696E+01 -1.261077281E+02  1.267913557E+02  4.750000000E+00  0.00000E+00  9.000E+00
      21     1     1     2   502   512  1.164415713E+00  3.464398258E+00  7.563531109E+00  8.400292976E+00  9.233911863E-07  0.00000E+00  9.000E+00
#rwgt            1           9   5.0293366722731589E-002           4      805994           0
</event>
<event>
      6   9999  3.45752E-01  4.16963E+00 -1.00000E+00  2.44175E-01
      21    -1     0     0   501   502  0.000000000E+00  0.000000000E+00  2.994724035E+02  2.994724035E+02  0.000000000E+00  0.00000E+00  9.000E+00
      21    -1     0     0   511   503  0.000000000E+00  0.000000000E+00 -2.889705821E+01  2.889705821E+01  0.000000000E+00  0.00000E+00  9.000E+00
      25     1     1     2     0     0  3.075900970E+01  9.829715722E-01  1.652026302E+02  2.094398751E+02  1.250042772E+02  0.00000E+00  9.000E+00
       5     1     1     2   501     0 -5.284896392E-01 -3.444093256E-01  6.877597586E+01  6.894269559E+01  4.750000000E+00  0.00000E+00  9.000E+00
      -5     1     1     2     0   503 -2.640229168E+01  1.013857019E+00  3.709257060E+01  4.578788273E+01  4.750000000E+00  0.00000E+00  9.000E+00
      21     1     1     2   511   502 -3.828228381E+00 -1.652419266E+00 -4.958313988E-01  4.199008305E+00  6.580174615E-08  0.00000E+00  9.000E+00
#rwgt            1           9   40.697175706216179                4      810223           0
</event>
<event>
      6   9999  3.45752E-01  4.32597E+00 -1.00000E+00  2.41012E-01
      21    -1     0     0   501   512  0.000000000E+00  0.000000000E+00  1.161682601E+03  1.161682601E+03  0.000000000E+00  0.00000E+00  9.000E+00
      21    -1     0     0   502   503  0.000000000E+00  0.000000000E+00 -3.524029174E+02  3.524029174E+02  0.000000000E+00  0.00000E+00  9.000E+00
      25     1     1     2     0     0  3.727433401E+00  5.565336575E+00 -3.234018458E+02  3.467817136E+02  1.249957453E+02  0.00000E+00  9.000E+00
       5     1     1     2   501     0 -2.799325223E+00 -3.830289183E+00  3.323971353E+01  3.391088899E+01  4.750000000E+00  0.00000E+00  9.000E+00
      -5     1     1     2     0   503  2.137281726E+00 -4.787487823E+00 -1.623407742E+01  1.770863581E+01  4.750000000E+00  0.00000E+00  9.000E+00
      21     1     1     2   502   512 -3.065389905E+00  3.052440431E+00  1.115675893E+03  1.115684280E+03  2.157918644E-05  0.00000E+00  9.000E+00
#rwgt            1           9   8.1046427592453812E-002           4      814736           0
</event>
<event>
      6   9999  3.45752E-01  7.82198E+01 -1.00000E+00  1.25150E-01
      -3    -1     0     0     0   503  0.000000000E+00  0.000000000E+00  7.849562121E+02  7.849562121E+02  0.000000000E+00  0.00000E+00  9.000E+00
      21    -1     0     0   501   502  0.000000000E+00  0.000000000E+00 -1.065701964E+03  1.065701964E+03  0.000000000E+00  0.00000E+00  9.000E+00
      25     1     1     2     0     0 -1.020541214E+02 -3.820204992E+02 -4.643066328E+02  6.225438085E+02  1.250017547E+02  0.00000E+00  9.000E+00
       5     1     1     2   501     0  8.608559019E+01  4.652489380E+02 -3.984438797E+02  6.185849908E+02  4.750000000E+00  0.00000E+00  9.000E+00
      -5     1     1     2     0   503  3.629079379E+01 -7.694672080E+00  2.059353613E+01  4.269526816E+01  4.750000000E+00  0.00000E+00  9.000E+00
      -3     1     1     2     0   502 -2.032226255E+01 -7.553376667E+01  5.614112242E+02  5.668341089E+02  7.629394531E-06  0.00000E+00  9.000E+00
#rwgt            1           9   2.4401873704520471                4      820500           0
</event>
<event>
      6   9999 -3.45752E-01  1.52603E+01 -1.00000E+00  1.69726E-01
      21    -1     0     0   501   502  0.000000000E+00  0.000000000E+00  1.765165854E+01  1.765165854E+01  0.000000000E+00  0.00000E+00  9.000E+00
       2    -1     0     0   502     0  0.000000000E+00  0.000000000E+00 -4.230669929E+03  4.230669929E+03  0.000000000E+00  0.00000E+00  9.000E+00
      25     1     1     2     0     0  3.187829075E+01  2.163139681E+01 -1.938437512E+03  1.942845187E+03  1.249931628E+02  0.00000E+00  9.000E+00
       5     1     1     2   501     0 -5.844278661E+00 -7.938774225E-01  1.416634490E+01  1.606342623E+01  4.750000000E+00  0.00000E+00  9.000E+00
      -5     1     1     2     0   503 -1.343827409E+01 -2.945288107E+01 -1.996181856E+03  1.996450005E+03  4.750000000E+00  0.00000E+00  9.000E+00
       2     1     1     2   503     0 -1.259573800E+01  8.615361678E+00 -2.925652479E+02  2.929629693E+02  5.394796609E-06  0.00000E+00  9.000E+00
#rwgt            1           9  -1.4547941814003672E-002           4      821965           0
</event>
<event>
      6   9999  3.45752E-01  8.86821E+00 -1.00000E+00  1.92861E-01
      21    -1     0     0   501   502  0.000000000E+00  0.000000000E+00  6.897345588E+02  6.897345588E+02  0.000000000E+00  0.00000E+00  9.000E+00
      21    -1     0     0   502   511  0.000000000E+00  0.000000000E+00 -2.121888491E+01  2.121888491E+01  0.000000000E+00  0.00000E+00  9.000E+00
      25     1     1     2     0     0  5.063277731E+00 -9.904032192E+00  2.953604059E+02  3.209168571E+02  1.250045327E+02  0.00000E+00  9.000E+00
       5     1     1     2   501     0  5.055222569E+00  2.005243383E+00  3.684557413E+02  3.685264876E+02  4.750000000E+00  0.00000E+00  9.000E+00
      -5     1     1     2     0   503 -1.804093566E+00  1.098356510E+01  3.179036281E+00  1.251248287E+01  4.750000000E+00  0.00000E+00  9.000E+00
      21     1     1     2   503   511 -8.314406734E+00 -3.084776294E+00  1.520490420E+00  8.997616087E+00  2.920019320E-07  0.00000E+00  9.000E+00
#rwgt            1           9  0.10517508265875965                4      825162           0
</event>
<event>
      6   9999  3.45752E-01  8.65322E+00 -1.00000E+00  1.94063E-01
      21    -1     0     0   512   502  0.000000000E+00  0.000000000E+00  2.287044272E+01  2.287044272E+01  0.000000000E+00  0.00000E+00  9.000E+00
      21    -1     0     0   502   503  0.000000000E+00  0.000000000E+00 -9.622338966E+02  9.622338966E+02  0.000000000E+00  0.00000E+00  9.000E+00
      25     1     1     2     0     0 -6.183065916E+01  5.219255701E+01 -4.924733223E+02  5.144912064E+02  1.249965396E+02  0.00000E+00  9.000E+00
       5     1     1     2   501     0  5.022635823E-01 -1.828815359E+00  2.660172558E+00  5.765054411E+00  4.750000000E+00  0.00000E+00  9.000E+00
      -5     1     1     2     0   503  6.933182566E+01 -5.365363644E+01 -4.473981658E+02  4.559312405E+02  4.750000000E+00  0.00000E+00  9.000E+00
      21     1     1     2   512   501 -8.003430079E+00  3.289894792E+00 -2.152138311E+00  8.916838009E+00  1.192092896E-07  0.00000E+00  9.000E+00
#rwgt            1           9   1.7919964133998346E-004           4      828248           0
</event>
<event>
      6   9999  3.45752E-01  1.07826E+01 -1.00000E+00  1.83811E-01
       1    -1     0     0   502     0  0.000000000E+00  0.000000000E+00  4.401694819E+02  4.401694819E+02  0.000000000E+00  0.00000E+00  9.000E+00
      21    -1     0     0   501   502  0.000000000E+00  0.000000000E+00 -2.470740148E+03  2.470740148E+03  0.000000000E+00  0.00000E+00  9.000E+00
      25     1     1     2     0     0 -1.279441994E+00  3.927425228E+01 -1.778682104E+03  1.783502753E+03  1.250117630E+02  0.00000E+00  9.000E+00
       5     1     1     2   501     0 -9.247522286E+01 -5.824678420E+01 -5.392881643E+02  5.502714252E+02  4.750000000E+00  0.00000E+00  9.000E+00
      -5     1     1     2     0   503  8.691819000E+01  2.731086955E+01 -1.304280133E+02  1.591687296E+02  4.750000000E+00  0.00000E+00  9.000E+00
       1     1     1     2   503     0  6.836474856E+00 -8.338337625E+00  4.178276148E+02  4.179667223E+02  7.629394531E-06  0.00000E+00  9.000E+00
#rwgt            1           9   29.054676919026026                4      831689           0
</event>
<event>
      6   9999  3.45752E-01  9.29495E+00 -1.00000E+00  1.90602E-01
      21    -1     0     0   501   502  0.000000000E+00  0.000000000E+00  3.014457330E+03  3.014457330E+03  0.000000000E+00  0.00000E+00  9.000E+00
      21    -1     0     0   511   503  0.000000000E+00  0.000000000E+00 -7.605879768E+01  7.605879768E+01  0.000000000E+00  0.00000E+00  9.000E+00
      25     1     1     2     0     0  4.601551041E-01  1.045253460E+01  6.279003275E+02  6.403074090E+02  1.250011583E+02  0.00000E+00  9.000E+00
       5     1     1     2   501     0 -1.703015119E+00  2.944726290E-01  2.366833330E+03  2.366838727E+03  4.750000000E+00  0.00000E+00  9.000E+00
      -5     1     1     2     0   503  2.361781652E+00 -1.519652216E+00  1.262919666E+01  1.378210665E+01  4.750000000E+00  0.00000E+00  9.000E+00
      21     1     1     2   511   502 -1.118921638E+00 -9.227355018E+00 -6.896432159E+01  6.958788486E+01  1.651812370E-06  0.00000E+00  9.000E+00
#rwgt            1           9   8.7470902692264086E-004           4      835241           0
</event>
<event>
      6   9999  3.45752E-01  3.20246E+01 -1.00000E+00  1.46026E-01
      21    -1     0     0   501   502  0.000000000E+00  0.000000000E+00  7.647944674E+02  7.647944674E+02  0.000000000E+00  0.00000E+00  9.000E+00
      21    -1     0     0   512   503  0.000000000E+00  0.000000000E+00 -5.245746171E+01  5.245746171E+01  0.000000000E+00  0.00000E+00  9.000E+00
      25     1     1     2     0     0 -6.155548498E+00  6.479147309E-01  4.627276100E+01  1.334330758E+02  1.249996269E+02  0.00000E+00  9.000E+00
       5     1     1     2   501     0 -2.202881829E+01  5.184039520E-01  6.261593405E+02  6.265649365E+02  4.750000000E+00  0.00000E+00  9.000E+00
      -5     1     1     2     0   503 -3.565211526E+00 -5.354041638E+00  3.389480488E+00  8.684904896E+00  4.750000000E+00  0.00000E+00  9.000E+00
      21     1     1     2   512   502  3.174957831E+01  4.187722955E+00  3.651542379E+01  4.856901194E+01  4.768371582E-07  0.00000E+00  9.000E+00
#rwgt            1           9   3.9752179617115338E-003           4      838489           0
</event>
<event>
      6   9999  3.45752E-01  3.58280E+01 -1.00000E+00  1.43018E-01
      21    -1     0     0   501   502  0.000000000E+00  0.000000000E+00  2.397982877E+01  2.397982877E+01  0.000000000E+00  0.00000E+00  9.000E+00
      21    -1     0     0   502   511  0.000000000E+00  0.000000000E+00 -1.477730246E+03  1.477730246E+03  0.000000000E+00  0.00000E+00  9.000E+00
      25     1     1     2     0     0  9.582425008E+00  8.402993400E+01 -4.521331241E+02  4.766615201E+02  1.250159595E+02  0.00000E+00  9.000E+00
       5     1     1     2   501     0  3.393118108E+00  1.495801192E+00  7.177402983E+00  9.371674625E+00  4.750000000E+00  0.00000E+00  9.000E+00
      -5     1     1     2     0   503  2.023501294E+01 -7.208319658E+01 -4.970493059E+02  5.026788418E+02  4.750000000E+00  0.00000E+00  9.000E+00
      21     1     1     2   503   511 -3.321055606E+01 -1.344253861E+01 -5.117453900E+02  5.129980381E+02  9.344061824E-06  0.00000E+00  9.000E+00
#rwgt            1           9   2.1714282151194681E-006           4      839914           0
</event>
<event>
      6   9999 -3.45752E-01  7.01919E+00 -1.00000E+00  2.04987E-01
      21    -1     0     0   501   502  0.000000000E+00  0.000000000E+00  2.264138638E+01  2.264138638E+01  0.000000000E+00  0.00000E+00  9.000E+00
      21    -1     0     0   502   512  0.000000000E+00  0.000000000E+00 -3.228115759E+03  3.228115759E+03  0.000000000E+00  0.00000E+00  9.000E+00
      25     1     1     2     0     0  2.448256694E+00 -8.340201345E+00 -9.580677056E+02  9.662268942E+02  1.250005189E+02  0.00000E+00  9.000E+00
       5     1     1     2   501     0  2.151541755E+00  1.166464693E+00  1.807033749E+01  1.884381513E+01  4.750000000E+00  0.00000E+00  9.000E+00
      -5     1     1     2     0   503 -1.836008770E+00  7.215620426E-01 -6.662723304E+01  6.682546119E+01  4.750000000E+00  0.00000E+00  9.000E+00
      21     1     1     2   503   512 -2.763789679E+00  6.452174609E+00 -2.198849772E+03  2.198860975E+03  0.000000000E+00  0.00000E+00  9.000E+00
#rwgt            1           9  -9.5113076482813399E-004           4      841011           0
</event>
<event>
      6   9999  3.45752E-01  2.61045E+01 -1.00000E+00  1.51855E-01
      21    -1     0     0   502   503  0.000000000E+00  0.000000000E+00  1.878045783E+01  1.878045783E+01  0.000000000E+00  0.00000E+00  9.000E+00
      21    -1     0     0   501   511  0.000000000E+00  0.000000000E+00 -1.855177908E+03  1.855177908E+03  0.000000000E+00  0.00000E+00  9.000E+00
      25     1     1     2     0     0  1.724452778E+01 -7.067315451E+01 -3.494128081E+02  3.781615813E+02  1.249992104E+02  0.00000E+00  9.000E+00
       5     1     1     2   501     0 -1.831588486E+00  9.260180094E+01 -5.394753370E+02  5.473889384E+02  4.750000000E+00  0.00000E+00  9.000E+00
      -5     1     1     2     0   503  6.282258361E-01 -1.334349713E+00 -2.307051178E+01  2.360055445E+01  4.750000000E+00  0.00000E+00  9.000E+00
      21     1     1     2   502   511 -1.604116513E+01 -2.059429672E+01 -9.244387936E+02  9.248072919E+02  0.000000000E+00  0.00000E+00  9.000E+00
#rwgt            1           9   5.5919740776274761E-004           4      844762           0
</event>
<event>
      6   9999  3.45752E-01  1.01018E+01 -1.00000E+00  1.86732E-01
      21    -1     0     0   501   502  0.000000000E+00  0.000000000E+00  4.838328068E+01  4.838328068E+01  0.000000000E+00  0.00000E+00  9.000E+00
       1    -1     0     0   502     0  0.000000000E+00  0.000000000E+00 -1.230854891E+03  1.230854891E+03  0.000000000E+00  0.00000E+00  9.000E+00
      25     1     1     2     0     0  3.682413746E+00  4.042812063E+01 -1.277443172E+02  1.832351309E+02  1.249340207E+02  0.00000E+00  9.000E+00
       5     1     1     2   501     0 -1.207248926E+00 -4.315435816E+01 -5.646068213E+00  4.379722211E+01  4.750000000E+00  0.00000E+00  9.000E+00
      -5     1     1     2     0   503  7.625630683E+00  2.584369775E+00 -1.267066889E+01  1.574603317E+01  4.750000000E+00  0.00000E+00  9.000E+00
       1     1     1     2   503     0 -1.010079550E+01  1.418677577E-01 -1.036410556E+03  1.036459785E+03  1.525878906E-05  0.00000E+00  9.000E+00
#rwgt            1           9   1.6086912116121089E-003           4      846150           0
</event>
<event>
      6   9999  3.45752E-01  3.47312E+01 -1.00000E+00  1.43838E-01
      21    -1     0     0   511   502  0.000000000E+00  0.000000000E+00  3.172646429E+02  3.172646429E+02  0.000000000E+00  0.00000E+00  9.000E+00
      21    -1     0     0   502   503  0.000000000E+00  0.000000000E+00 -2.351803406E+03  2.351803406E+03  0.000000000E+00  0.00000E+00  9.000E+00
      25     1     1     2     0     0 -1.272498777E+01  2.152272894E+01 -1.546723997E+03  1.551967427E+03  1.249904688E+02  0.00000E+00  9.000E+00
       5     1     1     2   501     0  4.362481196E+01 -2.750512186E+01  3.054120219E+02  3.097720477E+02  4.750000000E+00  0.00000E+00  9.000E+00
      -5     1     1     2     0   503  1.318027833E+00  1.895414668E+01 -7.565986228E+02  7.568520565E+02  4.750000000E+00  0.00000E+00  9.000E+00
      21     1     1     2   511   501 -3.221785203E+01 -1.297175377E+01 -3.662816499E+01  5.047651786E+01  9.536743164E-07  0.00000E+00  9.000E+00
#rwgt            1           9   1.4932233636698601E-002           4      848818           0
</event>
<event>
      6   9999  3.45752E-01  1.21165E+01 -1.00000E+00  1.78819E-01
      21    -1     0     0   501   512  0.000000000E+00  0.000000000E+00  1.564655373E+02  1.564655373E+02  0.000000000E+00  0.00000E+00  9.000E+00
      21    -1     0     0   502   503  0.000000000E+00  0.000000000E+00 -1.946653793E+02  1.946653793E+02  0.000000000E+00  0.00000E+00  9.000E+00
      25     1     1     2     0     0 -1.955837605E+01  4.994057219E+00 -1.623142422E+02  2.058614919E+02  1.250022799E+02  0.00000E+00  9.000E+00
       5     1     1     2   501     0 -1.768194124E+00  1.249775101E+00  8.659857686E+00  1.011158165E+01  4.750000000E+00  0.00000E+00  9.000E+00
      -5     1     1     2     0   503  1.557737308E+01  4.421861408E+00 -2.077831452E+00  1.700256727E+01  4.750000000E+00  0.00000E+00  9.000E+00
      21     1     1     2   502   512  5.749197090E+00 -1.066569373E+01  1.175323739E+02  1.181552758E+02  2.336015456E-06  0.00000E+00  9.000E+00
#rwgt            1           9  0.10336356707437357                4      851941           0
</event>
<event>
      6   9999 -3.45752E-01  7.14963E+01 -1.00000E+00  1.26971E-01
      21    -1     0     0   502   511  0.000000000E+00  0.000000000E+00  5.503560625E+01  5.503560625E+01  0.000000000E+00  0.00000E+00  9.000E+00
      21    -1     0     0   501   502  0.000000000E+00  0.000000000E+00 -1.107313069E+03  1.107313069E+03  0.000000000E+00  0.00000E+00  9.000E+00
      25     1     1     2     0     0  7.273061630E+01 -5.405589222E+01 -1.949369743E+02  2.486703753E+02  1.249989981E+02  0.00000E+00  9.000E+00
       5     1     1     2   501     0 -6.594245638E+00  2.440447641E+00 -8.088073838E+02  8.088518940E+02  4.750000000E+00  0.00000E+00  9.000E+00
      -5     1     1     2     0   503 -4.274037437E+00  1.577174746E+01 -2.362489827E+01  2.911552390E+01  4.750000000E+00  0.00000E+00  9.000E+00
      21     1     1     2   503   511 -6.186233323E+01  3.584369712E+01 -2.490820610E+01  7.571088183E+01  1.390207266E-06  0.00000E+00  9.000E+00
#rwgt            1           9  -1.3674388287618255                4      853724           0
</event>
<event>
      6   9999  3.45752E-01  2.65494E+00 -1.00000E+00  2.91570E-01
      21    -1     0     0   512   502  0.000000000E+00  0.000000000E+00  2.061957734E+01  2.061957734E+01  0.000000000E+00  0.00000E+00  9.000E+00
      21    -1     0     0   502   503  0.000000000E+00  0.000000000E+00 -1.001111097E+03  1.001111097E+03  0.000000000E+00  0.00000E+00  9.000E+00
      25     1     1     2     0     0 -4.192961571E+01 -1.337920900E+01 -4.410442094E+02  4.605236676E+02  1.249998315E+02  0.00000E+00  9.000E+00
       5     1     1     2   501     0 -1.908397197E+00  3.317011636E+00  8.837287939E+00  1.073800280E+01  4.750000000E+00  0.00000E+00  9.000E+00
      -5     1     1     2     0   503  4.118907821E+01  1.024059412E+01 -5.415282922E+02  5.432097787E+02  4.750000000E+00  0.00000E+00  9.000E+00
      21     1     1     2   512   501  2.648934698E+00 -1.783967533E-01 -6.756306375E+00  7.259225597E+00  8.429369702E-08  0.00000E+00  9.000E+00
#rwgt            1           9   1.4643628311609042E-004           4      854305           0
</event>
<event>
      6   9999  3.45752E-01  5.51862E+01 -1.00000E+00  1.32534E-01
      21    -1     0     0   501   511  0.000000000E+00  0.000000000E+00  3.698147182E+01  3.698147182E+01  0.000000000E+00  0.00000E+00  9.000E+00
      21    -1     0     0   502   503  0.000000000E+00  0.000000000E+00 -1.231436206E+03  1.231436206E+03  0.000000000E+00  0.00000E+00  9.000E+00
      25     1     1     2     0     0  1.106052486E+02  1.070686393E+02 -4.075412704E+02  4.532309658E+02  1.250248244E+02  0.00000E+00  9.000E+00
       5     1     1     2   501     0 -1.279963861E+02 -4.369218959E+01 -5.865330577E+02  6.019432469E+02  4.750000000E+00  0.00000E+00  9.000E+00
      -5     1     1     2     0   503  1.483375054E+01 -8.249511494E+00 -5.414093960E+01  5.693767150E+01  4.750000000E+00  0.00000E+00  9.000E+00
      21     1     1     2   502   511  2.557386955E+00 -5.512693826E+01 -1.462394660E+02  1.563057931E+02  1.907348633E-06  0.00000E+00  9.000E+00
#rwgt            1           9   3.0888543351400400E-004           4      861879           0
</event>
<event>
      6   9999  3.45752E-01  1.87647E+01 -1.00000E+00  1.62353E-01
      21    -1     0     0   501   502  0.000000000E+00  0.000000000E+00  9.380259901E+00  9.380259901E+00  0.000000000E+00  0.00000E+00  9.000E+00
      21    -1     0     0   502   512  0.000000000E+00  0.000000000E+00 -8.616392683E+02  8.616392683E+02  0.000000000E+00  0.00000E+00  9.000E+00
      25     1     1     2     0     0  1.196492856E+01  1.222464022E+01 -7.311846703E+02  7.419887499E+02  1.249947257E+02  0.00000E+00  9.000E+00
       5     1     1     2   501     0  1.895195119E+00  1.112473162E+00  3.923990284E-01  5.248412910E+00  4.750000000E+00  0.00000E+00  9.000E+00
      -5     1     1     2     0   503 -1.433494873E+00  7.231549827E-01 -2.910690972E+01  2.953561501E+01  4.750000000E+00  0.00000E+00  9.000E+00
      21     1     1     2   503   512 -1.242662881E+01 -1.406026836E+01 -9.235982734E+01  9.424675038E+01  2.336015456E-06  0.00000E+00  9.000E+00
#rwgt            1           9   1.9547840641034567E-003           4      863099           0
</event>
<event>
      6   9999  3.45752E-01  4.16120E+01 -1.00000E+00  1.39198E-01
      21    -1     0     0   502   503  0.000000000E+00  0.000000000E+00  3.022629492E+01  3.022629492E+01  0.000000000E+00  0.00000E+00  9.000E+00
      21    -1     0     0   511   502  0.000000000E+00  0.000000000E+00 -1.260521068E+03  1.260521068E+03  0.000000000E+00  0.00000E+00  9.000E+00
      25     1     1     2     0     0 -3.016621429E+00 -1.569645995E+02 -5.237525623E+02  5.608828060E+02  1.250031602E+02  0.00000E+00  9.000E+00
       5     1     1     2   501     0  2.802978372E+01  1.298198880E+02 -5.014073852E+02  5.187203491E+02  4.750000000E+00  0.00000E+00  9.000E+00
      -5     1     1     2     0   503  5.297406278E+00 -1.365444193E+00 -1.730847450E+01  1.876360148E+01  4.750000000E+00  0.00000E+00  9.000E+00
      21     1     1     2   511   501 -3.031056857E+01  2.851015570E+01 -1.878263507E+02  1.923806060E+02  0.000000000E+00  0.00000E+00  9.000E+00
#rwgt            1           9   2.0506441332592299E-004           4      864494           0
</event>
<event>
      6   9999  3.45752E-01  4.99973E+00 -1.00000E+00  2.29366E-01
      21    -1     0     0   501   502  0.000000000E+00  0.000000000E+00  6.456501258E+01  6.456501258E+01  0.000000000E+00  0.00000E+00  9.000E+00
      21    -1     0     0   502   512  0.000000000E+00  0.000000000E+00 -1.476967150E+03  1.476967150E+03  0.000000000E+00  0.00000E+00  9.000E+00
      25     1     1     2     0     0 -1.968007322E+00  8.137694114E+00 -1.279315654E+03  1.285431838E+03  1.249654815E+02  0.00000E+00  9.000E+00
       5     1     1     2   501     0 -9.360365713E-01 -1.214162432E+01  6.062150436E+01  6.201471193E+01  4.750000000E+00  0.00000E+00  9.000E+00
      -5     1     1     2     0   503  3.388236035E+00 -9.722981328E-01 -6.167574073E+01  6.195873628E+01  4.750000000E+00  0.00000E+00  9.000E+00
      21     1     1     2   503   512 -4.841921413E-01  4.976228336E+00 -1.320322464E+02  1.321268761E+02  0.000000000E+00  0.00000E+00  9.000E+00
#rwgt            1           9   2.6973907067083113E-004           4      865790           0
</event>
<event>
      6   9999  3.45752E-01  1.23050E+01 -1.00000E+00  1.78179E-01
      21    -1     0     0   501   502  0.000000000E+00  0.000000000E+00  3.407502585E+01  3.407502585E+01  0.000000000E+00  0.00000E+00  9.000E+00
      21    -1     0     0   502   511  0.000000000E+00  0.000000000E+00 -1.201830496E+03  1.201830496E+03  0.000000000E+00  0.00000E+00  9.000E+00
      25     1     1     2     0     0 -1.255851238E+00 -5.315230335E+01 -4.736528585E+02  4.927454579E+02  1.249972456E+02  0.00000E+00  9.000E+00
       5     1     1     2   501     0  7.377307998E+00  2.667877569E+00  2.112584110E+01  2.303054290E+01  4.750000000E+00  0.00000E+00  9.000E+00
      -5     1     1     2     0   503 -4.001602015E+00  6.260549629E+01 -6.781624893E+02  6.810744345E+02  4.750000000E+00  0.00000E+00  9.000E+00
      21     1     1     2   503   511 -2.119854744E+00 -1.212107052E+01 -3.706596311E+01  3.905508617E+01  0.000000000E+00  0.00000E+00  9.000E+00
#rwgt            1           9   3.7806412203444267E-004           4      872289           0
</event>
<event>
      6   9999  3.45752E-01  2.97610E+01 -1.00000E+00  1.48063E-01
      21    -1     0     0   501   502  0.000000000E+00  0.000000000E+00  8.044059090E+02  8.044059090E+02  0.000000000E+00  0.00000E+00  9.000E+00
      21    -1     0     0   512   503  0.000000000E+00  0.000000000E+00 -1.076375280E+02  1.076375280E+02  0.000000000E+00  0.00000E+00  9.000E+00
      25     1     1     2     0     0  1.142740037E+02 -2.876389081E+01  9.297840640E+01  1.953229345E+02  1.249806200E+02  0.00000E+00  9.000E+00
       5     1     1     2   501     0  9.950347008E+00  9.370454605E+00  5.896107835E+02  5.897883123E+02  4.750000000E+00  0.00000E+00  9.000E+00
      -5     1     1     2     0   503 -9.556094317E+01  1.138557747E+01  9.807376174E+00  9.685180618E+01  4.750000000E+00  0.00000E+00  9.000E+00
      21     1     1     2   512   502 -2.866340754E+01  8.007858740E+00  4.371814987E+00  3.008038397E+01  8.678567278E-07  0.00000E+00  9.000E+00
#rwgt            1           9   2.6773854403477329E-004           4      875285           0
</event>
<event>
      6   9999  3.45752E-01  1.04993E+02 -1.00000E+00  1.19543E-01
      21    -1     0     0   511   502  0.000000000E+00  0.000000000E+00  2.990765209E+01  2.990765209E+01  0.000000000E+00  0.00000E+00  9.000E+00
       2    -1     0     0   501     0  0.000000000E+00  0.000000000E+00 -2.601510934E+03  2.601510934E+03  0.000000000E+00  0.00000E+00  9.000E+00
      25     1     1     2     0     0  1.505278219E+02  1.586319380E+02 -1.500762453E+03  1.521753739E+03  1.249951338E+02  0.00000E+00  9.000E+00
       5     1     1     2   501     0 -1.523797063E+01  1.325959641E+01 -5.644819976E+01  6.014128700E+01  4.750000000E+00  0.00000E+00  9.000E+00
      -5     1     1     2     0   502 -6.095876278E+01 -9.773987352E+01 -8.246429139E+02  8.326629280E+02  4.750000000E+00  0.00000E+00  9.000E+00
       2     1     1     2   511     0 -7.433108852E+01 -7.415166087E+01 -1.897497150E+02  2.168606324E+02  2.697398305E-06  0.00000E+00  9.000E+00
#rwgt            1           3   1.9159314437308493E-004           4      877301           0
</event>
<event>
      6   9999  3.45752E-01  1.10547E+01 -1.00000E+00  1.82720E-01
      21    -1     0     0   501   502  0.000000000E+00  0.000000000E+00  2.078305270E+01  2.078305270E+01  0.000000000E+00  0.00000E+00  9.000E+00
      21    -1     0     0   512   503  0.000000000E+00  0.000000000E+00 -1.737748559E+03  1.737748559E+03  0.000000000E+00  0.00000E+00  9.000E+00
      25     1     1     2     0     0  4.932876080E+00  1.331260131E+01 -8.487661396E+02  8.580399639E+02  1.250082446E+02  0.00000E+00  9.000E+00
       5     1     1     2   501     0 -2.063540376E+00  7.072344178E+00  1.469724055E+01  1.711279144E+01  4.750000000E+00  0.00000E+00  9.000E+00
      -5     1     1     2     0   503 -2.368941164E-01 -9.648219303E+00 -1.446187468E+02  1.450182356E+02  4.750000000E+00  0.00000E+00  9.000E+00
      21     1     1     2   512   502 -2.632441588E+00 -1.073672618E+01 -7.382778608E+02  7.383606211E+02  1.078959322E-05  0.00000E+00  9.000E+00
#rwgt            1           9   4.3806914332951800E-002           4      878039           0
</event>
<event>
      6   9999 -3.45752E-01  3.69078E+01 -1.00000E+00  1.42243E-01
      21    -1     0     0   502   511  0.000000000E+00  0.000000000E+00  6.622162858E+01  6.622162858E+01  0.000000000E+00  0.00000E+00  9.000E+00
      21    -1     0     0   501   502  0.000000000E+00  0.000000000E+00 -1.504894773E+03  1.504894773E+03  0.000000000E+00  0.00000E+00  9.000E+00
      25     1     1     2     0     0 -2.643936431E+02 -1.462026754E+02 -7.914718287E+02  8.563483963E+02  1.250027979E+02  0.00000E+00  9.000E+00
       5     1     1     2   501     0  4.260849451E+01  1.764214527E+01 -9.648784821E+01  1.070476363E+02  4.750000000E+00  0.00000E+00  9.000E+00
      -5     1     1     2     0   503  1.929423228E+02  1.055328245E+02 -4.774665547E+02  5.257002856E+02  4.750000000E+00  0.00000E+00  9.000E+00
      21     1     1     2   503   511  2.884282575E+01  2.302770558E+01 -7.324691291E+01  8.202008335E+01  1.348699152E-06  0.00000E+00  9.000E+00
#rwgt            1           9  -9.2351217003268232E-003           4      880999           0
</event>
<event>
      6   9999  3.45752E-01  9.65010E+00 -1.00000E+00  1.88838E-01
      -1    -1     0     0     0   502  0.000000000E+00  0.000000000E+00  3.037762484E+02  3.037762484E+02  0.000000000E+00  0.00000E+00  9.000E+00
      21    -1     0     0   502   503  0.000000000E+00  0.000000000E+00 -1.135989469E+03  1.135989469E+03  0.000000000E+00  0.00000E+00  9.000E+00
      25     1     1     2     0     0 -6.299909214E+01  8.731036759E+01 -4.488900992E+02  4.782443386E+02  1.249933609E+02  0.00000E+00  9.000E+00
       5     1     1     2   501     0  1.219578534E-01 -1.293246963E+00  8.846563107E+00  1.012479828E+01  4.750000000E+00  0.00000E+00  9.000E+00
      -5     1     1     2     0   503  5.713745524E+01 -9.377472729E+01 -6.672020910E+02  6.761949283E+02  4.750000000E+00  0.00000E+00  9.000E+00
      -1     1     1     2     0   501  5.739679045E+00  7.757606665E+00  2.750324069E+02  2.752016519E+02  5.394796609E-06  0.00000E+00  9.000E+00
#rwgt            1           9   1.6649486207749676E-004           4      883340           0
</event>
<event>
      6   9999  3.45752E-01  2.07144E+01 -1.00000E+00  1.59056E-01
      21    -1     0     0   501   502  0.000000000E+00  0.000000000E+00  5.051250651E+01  5.051250651E+01  0.000000000E+00  0.00000E+00  9.000E+00
      21    -1     0     0   502   511  0.000000000E+00  0.000000000E+00 -1.575016324E+03  1.575016324E+03  0.000000000E+00  0.00000E+00  9.000E+00
      25     1     1     2     0     0 -8.895014570E+00  9.778130297E+01 -1.156152135E+03  1.167027090E+03  1.249966632E+02  0.00000E+00  9.000E+00
       5     1     1     2   501     0 -3.418156501E+00 -1.298728390E+00  3.854637130E+01  3.900968764E+01  4.750000000E+00  0.00000E+00  9.000E+00
      -5     1     1     2     0   503  1.799779814E+01 -7.656348600E+01 -2.784149262E+02  2.893498259E+02  4.750000000E+00  0.00000E+00  9.000E+00
      21     1     1     2   503   511 -5.684627071E+00 -1.991908858E+01 -1.284831276E+02  1.301422266E+02  0.000000000E+00  0.00000E+00  9.000E+00
#rwgt            1           9   7.7959486346266247E-004           4      887046           0
</event>
<event>
      6   9999  3.45752E-01  1.29844E+01 -1.00000E+00  1.75988E-01
       2    -1     0     0   501     0  0.000000000E+00  0.000000000E+00  1.854655038E+03  1.854655038E+03  0.000000000E+00  0.00000E+00  9.000E+00
      21    -1     0     0   502   503  0.000000000E+00  0.000000000E+00 -4.257138378E+01  4.257138378E+01  0.000000000E+00  0.00000E+00  9.000E+00
      25     1     1     2     0     0  6.785206875E+00  5.673675158E+00  5.892882150E+01  1.384767853E+02  1.249999378E+02  0.00000E+00  9.000E+00
       5     1     1     2   501     0  1.485117391E+00  1.287054141E+00  2.595469230E+01  2.645884794E+01  4.750000000E+00  0.00000E+00  9.000E+00
      -5     1     1     2     0   503  3.548259267E+00 -1.583476002E+00  1.213870125E+00  6.255679080E+00  4.750000000E+00  0.00000E+00  9.000E+00
       2     1     1     2   502     0 -1.181858353E+01 -5.377253296E+00  1.725986271E+03  1.726035110E+03  0.000000000E+00  0.00000E+00  9.000E+00
#rwgt            1           9   3.7506799889468798E-002           4      889379           0
</event>
<event>
      6   9999  3.45752E-01  1.39932E+01 -1.00000E+00  1.73029E-01
      21    -1     0     0   501   502  0.000000000E+00  0.000000000E+00  1.165495994E+02  1.165495994E+02  0.000000000E+00  0.00000E+00  9.000E+00
      21    -1     0     0   511   503  0.000000000E+00  0.000000000E+00 -1.252784967E+02  1.252784967E+02  0.000000000E+00  0.00000E+00  9.000E+00
      25     1     1     2     0     0 -5.718958173E+00 -5.169859805E+00 -6.593466996E+01  1.415331558E+02  1.249992783E+02  0.00000E+00  9.000E+00
       5     1     1     2   501     0  2.058216814E+00 -8.043280158E+00  7.149720252E+01  7.213420188E+01  4.750000000E+00  0.00000E+00  9.000E+00
      -5     1     1     2     0   503  7.188600407E+00 -3.280733702E-01 -1.064734940E+01  1.370080863E+01  4.750000000E+00  0.00000E+00  9.000E+00
      21     1     1     2   511   502 -3.527859047E+00  1.354121333E+01 -3.644080450E+00  1.445992982E+01  2.269677253E-07  0.00000E+00  9.000E+00
#rwgt            1           9   5.2319144553740433E-002           4      891415           0
</event>
<event>
      6   9999  3.45752E-01  7.94768E+00 -1.00000E+00  1.98353E-01
      21    -1     0     0   501   512  0.000000000E+00  0.000000000E+00  6.186698485E+01  6.186698485E+01  0.000000000E+00  0.00000E+00  9.000E+00
      21    -1     0     0   502   503  0.000000000E+00  0.000000000E+00 -8.938876422E+02  8.938876422E+02  0.000000000E+00  0.00000E+00  9.000E+00
      25     1     1     2     0     0  2.124051402E+00 -1.938330750E+00 -7.998466929E+02  8.095603566E+02  1.249998805E+02  0.00000E+00  9.000E+00
       5     1     1     2   501     0 -6.561612573E+00 -4.283882016E+00  1.230372783E+01  1.534114152E+01  4.750000000E+00  0.00000E+00  9.000E+00
      -5     1     1     2     0   503 -1.599882727E+00  1.053564595E+00 -8.722400614E+01  8.737424890E+01  4.750000000E+00  0.00000E+00  9.000E+00
      21     1     1     2   502   512  6.037443898E+00  5.168648171E+00  4.274631390E+01  4.347887999E+01  2.697398305E-06  0.00000E+00  9.000E+00
#rwgt            1           9   5.4767522375083998E-004           4      893503           0
</event>
<event>
      6   9999  3.45752E-01  1.06452E+01 -1.00000E+00  1.84378E-01
      21    -1     0     0   501   511  0.000000000E+00  0.000000000E+00  1.559133562E+03  1.559133562E+03  0.000000000E+00  0.00000E+00  9.000E+00
      21    -1     0     0   502   503  0.000000000E+00  0.000000000E+00 -1.202002613E+02  1.202002613E+02  0.000000000E+00  0.00000E+00  9.000E+00
      25     1     1     2     0     0  2.569320744E+00  5.287152517E+00 -8.135591507E+01  1.492569215E+02  1.249971532E+02  0.00000E+00  9.000E+00
       5     1     1     2   501     0  6.553267554E-01  5.984313677E-01  2.962189388E+01  3.001344150E+01  4.750000000E+00  0.00000E+00  9.000E+00
      -5     1     1     2     0   503 -5.359065011E+00  4.543390396E+00 -8.361967107E-01  8.521953944E+00  4.750000000E+00  0.00000E+00  9.000E+00
      21     1     1     2   502   511  2.134417512E+00 -1.042897428E+01  1.491503518E+03  1.491541506E+03  3.051757812E-05  0.00000E+00  9.000E+00
#rwgt            1           9   2.6935158362460294                4      896644           0
</event>
<event>
      6   9999  3.45752E-01  4.81334E+00 -1.00000E+00  2.32307E-01
      21    -1     0     0   501   502  0.000000000E+00  0.000000000E+00  2.733717136E+01  2.733717136E+01  0.000000000E+00  0.00000E+00  9.000E+00
       1    -1     0     0   502     0  0.000000000E+00  0.000000000E+00 -2.769066491E+02  2.769066491E+02  0.000000000E+00  0.00000E+00  9.000E+00
      25     1     1     2     0     0  1.628276504E+01 -3.873845452E+00 -1.888404107E+02  2.270806332E+02  1.249991126E+02  0.00000E+00  9.000E+00
       5     1     1     2   501     0 -6.037738655E-02  3.562275413E-01  3.321321767E+00  5.807255959E+00  4.750000000E+00  0.00000E+00  9.000E+00
      -5     1     1     2     0   503 -1.425701784E+01 -8.761923611E-01 -1.245818430E+01  1.953968083E+01  4.750000000E+00  0.00000E+00  9.000E+00
       1     1     1     2   503     0 -1.965369818E+00  4.393810272E+00 -5.159220451E+01  5.181625047E+01  0.000000000E+00  0.00000E+00  9.000E+00
#rwgt            1           9   6.4274100293160066E-004           4      899013           0
</event>
<event>
      6   9999  3.45752E-01  4.57403E+00 -1.00000E+00  2.36382E-01
      21    -1     0     0   501   502  0.000000000E+00  0.000000000E+00  7.458791698E+00  7.458791698E+00  0.000000000E+00  0.00000E+00  9.000E+00
      21    -1     0     0   502   511  0.000000000E+00  0.000000000E+00 -7.653489954E+02  7.653489954E+02  0.000000000E+00  0.00000E+00  9.000E+00
      25     1     1     2     0     0 -1.513660724E+01  4.943889656E+00 -6.023378155E+02  6.153773909E+02  1.249997212E+02  0.00000E+00  9.000E+00
       5     1     1     2   501     0  9.856424378E+00  1.020840195E+00 -4.594724269E+01  4.724301882E+01  4.750000000E+00  0.00000E+00  9.000E+00
      -5     1     1     2     0   503  9.222329052E-01 -4.575469501E+00 -5.844900427E+01  5.882715389E+01  4.750000000E+00  0.00000E+00  9.000E+00
      21     1     1     2   503   511  4.357949958E+00 -1.389260350E+00 -5.115614119E+01  5.136022346E+01  6.743495762E-07  0.00000E+00  9.000E+00
#rwgt            1           9   4.5104788442478053E-004           4      903825           0
</event>
<event>
      6   9999  3.45752E-01  1.68563E+01 -1.00000E+00  1.66094E-01
      21    -1     0     0   512   502  0.000000000E+00  0.000000000E+00  1.047908943E+01  1.047908943E+01  0.000000000E+00  0.00000E+00  9.000E+00
      21    -1     0     0   502   503  0.000000000E+00  0.000000000E+00 -7.483405144E+02  7.483405144E+02  0.000000000E+00  0.00000E+00  9.000E+00
      25     1     1     2     0     0 -8.966570732E+00  5.003475647E+00 -4.704600753E+02  4.868897070E+02  1.249938805E+02  0.00000E+00  9.000E+00
       5     1     1     2   501     0 -8.973401584E+00 -2.752545341E+00 -3.496371409E+01  3.651194660E+01  4.750000000E+00  0.00000E+00  9.000E+00
      -5     1     1     2     0   503  1.335550978E+00 -5.153896280E+00 -1.838689575E+02  1.840073433E+02  4.750000000E+00  0.00000E+00  9.000E+00
      21     1     1     2   512   501  1.660442134E+01  2.902965974E+00 -4.856867803E+01  5.141060693E+01  6.743495762E-07  0.00000E+00  9.000E+00
#rwgt            1           9   220.72380903032496                4      907480           0
</event>
<event>
      6   9999  3.45752E-01  3.14300E+01 -1.00000E+00  1.46542E-01
      21    -1     0     0   511   503  0.000000000E+00  0.000000000E+00  4.699579399E+01  4.699579399E+01  0.000000000E+00  0.00000E+00  9.000E+00
      21    -1     0     0   501   502  0.000000000E+00  0.000000000E+00 -9.393055804E+02  9.393055804E+02  0.000000000E+00  0.00000E+00  9.000E+00
      25     1     1     2     0     0  5.973793952E+01  7.801295736E-01 -2.934160739E+02  3.244822808E+02  1.250061125E+02  0.00000E+00  9.000E+00
       5     1     1     2   501     0 -1.802102535E+01  2.413923031E+01 -4.167107649E+02  4.178251834E+02  4.750000000E+00  0.00000E+00  9.000E+00
      -5     1     1     2     0   503 -3.923957670E+01 -5.625157948E+01 -1.974322385E+02  2.090598859E+02  4.750000000E+00  0.00000E+00  9.000E+00
      21     1     1     2   511   502 -2.477337475E+00  3.133221960E+01  1.524929081E+01  3.493402433E+01  4.768371582E-07  0.00000E+00  9.000E+00
#rwgt            1           9   8.6928144903365041E-003           4      909200           0
</event>
<event>
      6   9999  3.45752E-01  1.78010E+01 -1.00000E+00  1.64170E-01
       4    -1     0     0   501     0  0.000000000E+00  0.000000000E+00  2.832590043E+02  2.832590043E+02  0.000000000E+00  0.00000E+00  9.000E+00
      21    -1     0     0   502   503  0.000000000E+00  0.000000000E+00 -1.286557888E+03  1.286557888E+03  0.000000000E+00  0.00000E+00  9.000E+00
      25     1     1     2     0     0  5.522748916E+01  1.210517647E+02 -2.644848263E+02  3.213800912E+02  1.250173362E+02  0.00000E+00  9.000E+00
       5     1     1     2   501     0 -1.760646906E+00  1.966389646E+01 -2.437714881E+01  3.172659114E+01  4.750000000E+00  0.00000E+00  9.000E+00
      -5     1     1     2     0   503 -4.703213689E+01 -1.241183466E+02 -9.606835320E+02  9.698210128E+02  4.750000000E+00  0.00000E+00  9.000E+00
       4     1     1     2   502     0 -6.434705362E+00 -1.659731456E+01  2.462466232E+02  2.468891973E+02  5.394796609E-06  0.00000E+00  9.000E+00
#rwgt            1           9   8.4284338157603370E-004           4      910901           0
</event>
<event>
      6   9999  3.45752E-01  3.79535E+01 -1.00000E+00  1.41522E-01
      21    -1     0     0   502   503  0.000000000E+00  0.000000000E+00  1.257491625E+02  1.257491625E+02  0.000000000E+00  0.00000E+00  9.000E+00
      21    -1     0     0   511   502  0.000000000E+00  0.000000000E+00 -1.672416125E+02  1.672416125E+02  0.000000000E+00  0.00000E+00  9.000E+00
      25     1     1     2     0     0 -3.336936290E+01 -1.022071592E+01 -3.193150280E+00  1.297726656E+02  1.249510749E+02  0.00000E+00  9.000E+00
       5     1     1     2   501     0  8.227860048E+01  3.972420811E+01 -4.399486737E+01  1.015179376E+02  4.750000000E+00  0.00000E+00  9.000E+00
      -5     1     1     2     0   503 -1.624109522E+01 -1.018357639E+01  1.217052439E+01  2.319833110E+01  4.750000000E+00  0.00000E+00  9.000E+00
      21     1     1     2   511   501 -3.266814237E+01 -1.931991581E+01 -6.474956703E+00  3.850184069E+01  6.307962682E-07  0.00000E+00  9.000E+00
#rwgt            1           9   3.9272022367021155                4      913305           0
</event>
<event>
      6   9999  3.45752E-01  1.46698E+01 -1.00000E+00  1.71213E-01
      21    -1     0     0   501   502  0.000000000E+00  0.000000000E+00  5.010688957E+03  5.010688957E+03  0.000000000E+00  0.00000E+00  9.000E+00
      21    -1     0     0   512   503  0.000000000E+00  0.000000000E+00 -5.288175489E+01  5.288175489E+01  0.000000000E+00  0.00000E+00  9.000E+00
      25     1     1     2     0     0 -1.384434604E+01 -3.669898031E-01  2.912052347E+03  2.914766847E+03  1.250003953E+02  0.00000E+00  9.000E+00
       5     1     1     2   501     0 -2.726162173E+00  2.788516076E+00  1.592600701E+03  1.592612559E+03  4.750000000E+00  0.00000E+00  9.000E+00
      -5     1     1     2     0   503  6.794539812E+00  8.516240792E+00  5.035568833E+02  5.036971206E+02  4.750000000E+00  0.00000E+00  9.000E+00
      21     1     1     2   512   502  9.775968398E+00 -1.093776707E+01 -5.040272963E+01  5.249418502E+01  4.720447033E-06  0.00000E+00  9.000E+00
#rwgt            1           9   1.3857866170905727E-002           4      914485           0
</event>
<event>
      6   9999  3.45752E-01  9.43270E+00 -1.00000E+00  1.89906E-01
       2    -1     0     0   501     0  0.000000000E+00  0.000000000E+00  5.832613933E+02  5.832613933E+02  0.000000000E+00  0.00000E+00  9.000E+00
      21    -1     0     0   502   503  0.000000000E+00  0.000000000E+00 -1.568663640E+02  1.568663640E+02  0.000000000E+00  0.00000E+00  9.000E+00
      25     1     1     2     0     0 -2.642727933E+01 -1.290576097E+01 -1.191526073E+02  1.751763374E+02  1.249977823E+02  0.00000E+00  9.000E+00
       5     1     1     2   501     0 -4.739288057E-01  9.048021886E-01  2.086377303E+01  2.142201673E+01  4.750000000E+00  0.00000E+00  9.000E+00
      -5     1     1     2     0   503  3.482961144E+01  1.711136155E+01  3.136966906E+01  5.012503530E+01  4.750000000E+00  0.00000E+00  9.000E+00
       2     1     1     2   502     0 -7.928403305E+00 -5.110402772E+00  4.933141944E+02  4.934043679E+02  5.394796609E-06  0.00000E+00  9.000E+00
#rwgt            1           9   6.5566432918446216E-004           4      916501           0
</event>
<event>
      6   9999 -3.45752E-01  6.10023E+00 -1.00000E+00  2.13061E-01
      21    -1     0     0   511   502  0.000000000E+00  0.000000000E+00  3.194762192E+01  3.194762192E+01  0.000000000E+00  0.00000E+00  9.000E+00
      21    -1     0     0   502   503  0.000000000E+00  0.000000000E+00 -1.150075239E+03  1.150075239E+03  0.000000000E+00  0.00000E+00  9.000E+00
      25     1     1     2     0     0 -1.941209730E-01  1.769068848E+01 -1.094070162E+03  1.101327858E+03  1.249821340E+02  0.00000E+00  9.000E+00
       5     1     1     2   501     0 -1.126562886E+00 -6.655362226E+00  2.637271508E+01  2.763413814E+01  4.750000000E+00  0.00000E+00  9.000E+00
      -5     1     1     2     0   503 -3.430531655E+00 -7.209268591E+00 -3.914708149E+01  4.023429620E+01  4.750000000E+00  0.00000E+00  9.000E+00
      21     1     1     2   511   501  4.751215514E+00 -3.826057661E+00 -1.128308876E+01  1.282656844E+01  1.192092896E-07  0.00000E+00  9.000E+00
#rwgt            1           9  -5.8815187447727052E-004           4      919187           0
</event>
<event>
      6   9999  3.45752E-01  1.86815E+01 -1.00000E+00  1.62504E-01
      21    -1     0     0   501   502  0.000000000E+00  0.000000000E+00  1.843537475E+01  1.843537475E+01  0.000000000E+00  0.00000E+00  9.000E+00
      21    -1     0     0   512   503  0.000000000E+00  0.000000000E+00 -1.195805039E+03  1.195805039E+03  0.000000000E+00  0.00000E+00  9.000E+00
      25     1     1     2     0     0 -3.356868647E+01  1.070230106E+01 -6.446833699E+02  6.576354647E+02  1.250054443E+02  0.00000E+00  9.000E+00
       5     1     1     2   501     0 -1.986589961E+00  1.746102874E+00  1.054931421E+01  1.186785344E+01  4.750000000E+00  0.00000E+00  9.000E+00
      -5     1     1     2     0   503  1.687681460E+01 -1.278578125E+01 -3.034348322E+02  3.042097352E+02  4.750000000E+00  0.00000E+00  9.000E+00
      21     1     1     2   512   502  1.867846183E+01  3.373773182E-01 -2.398007767E+02  2.405273607E+02  0.000000000E+00  0.00000E+00  9.000E+00
#rwgt            1           9   4.5662622005629787E-005           4      923931           0
</event>
<event>
      6   9999  3.45752E-01  3.81613E+00 -1.00000E+00  2.52157E-01
      21    -1     0     0   501   502  0.000000000E+00  0.000000000E+00  8.989677685E+00  8.989677685E+00  0.000000000E+00  0.00000E+00  9.000E+00
      21    -1     0     0   511   503  0.000000000E+00  0.000000000E+00 -1.898198997E+03  1.898198997E+03  0.000000000E+00  0.00000E+00  9.000E+00
      25     1     1     2     0     0  4.035114188E+00  5.246729898E+00 -7.437895187E+02  7.542510891E+02  1.250121875E+02  0.00000E+00  9.000E+00
       5     1     1     2   501     0 -2.076209180E-01 -3.655486172E-01 -1.624666642E+00  5.037735000E+00  4.750000000E+00  0.00000E+00  9.000E+00
      -5     1     1     2     0   503 -2.687919354E-01 -6.259032862E+00 -5.491764579E+00  9.590084445E+00  4.750000000E+00  0.00000E+00  9.000E+00
      21     1     1     2   511   502 -3.558701335E+00  1.377851582E+00 -1.138303370E+03  1.138309766E+03  0.000000000E+00  0.00000E+00  9.000E+00
#rwgt            1           9   3.5193051797157164E-004           4      925736           0
</event>
<event>
      6   9999  3.45752E-01  5.04663E+01 -1.00000E+00  1.34572E-01
      21    -1     0     0   512   502  0.000000000E+00  0.000000000E+00  8.683375877E+02  8.683375877E+02  0.000000000E+00  0.00000E+00  9.000E+00
      21    -1     0     0   502   503  0.000000000E+00  0.000000000E+00 -2.405168090E+02  2.405168090E+02  0.000000000E+00  0.00000E+00  9.000E+00
      25     1     1     2     0     0  3.190967779E+02  8.719997518E+01  5.981840799E+01  3.586516778E+02  1.250047788E+02  0.00000E+00  9.000E+00
       5     1     1     2   501     0  2.840146837E+00  6.093047916E+00  1.126009448E+02  1.129014037E+02  4.750000000E+00  0.00000E+00  9.000E+00
      -5     1     1     2     0   503 -2.970486468E+02 -1.371953864E+02  2.147342357E+02  3.913998302E+02  4.750000000E+00  0.00000E+00  9.000E+00
      21     1     1     2   512   501 -2.488827796E+01  4.390236334E+01  2.406671902E+02  2.459014850E+02  2.697398305E-06  0.00000E+00  9.000E+00
#rwgt            1           9   3611.1631752592129                4      930090           0
</event>
<event>
      6   9999  3.45752E-01  3.42526E+00 -1.00000E+00  2.62672E-01
      21    -1     0     0   501   511  0.000000000E+00  0.000000000E+00  1.336156822E+02  1.336156822E+02  0.000000000E+00  0.00000E+00  9.000E+00
      21    -1     0     0   502   503  0.000000000E+00  0.000000000E+00 -8.513471471E+02  8.513471471E+02  0.000000000E+00  0.00000E+00  9.000E+00
      25     1     1     2     0     0 -1.273312732E+01 -2.559673722E+00 -6.955857998E+02  7.068476093E+02  1.250010136E+02  0.00000E+00  9.000E+00
       5     1     1     2   501     0  5.004112405E-01  3.093074295E-01 -4.570105481E+00  6.617737272E+00  4.750000000E+00  0.00000E+00  9.000E+00
      -5     1     1     2     0   503  1.144995409E+01  5.584984696E+00 -1.441935700E+02  1.448331510E+02  4.750000000E+00  0.00000E+00  9.000E+00
      21     1     1     2   502   511  7.827619932E-01 -3.334618403E+00  1.266180103E+02  1.266643318E+02  4.046097457E-06  0.00000E+00  9.000E+00
#rwgt            1           9  0.10695954746678397                4      932420           0
</event>
<event>
      6   9999 -3.45752E-01  8.67733E+00 -1.00000E+00  1.93926E-01
      21    -1     0     0   502   503  0.000000000E+00  0.000000000E+00  2.724822932E+01  2.724822932E+01  0.000000000E+00  0.00000E+00  9.000E+00
       1    -1     0     0   501     0  0.000000000E+00  0.000000000E+00 -7.110882836E+02  7.110882836E+02  0.000000000E+00  0.00000E+00  9.000E+00
      25     1     1     2     0     0 -5.124290503E+01  1.577517970E+01 -4.699552978E+02  4.892416603E+02  1.249989147E+02  0.00000E+00  9.000E+00
       5     1     1     2   501     0 -1.618203402E-01  1.493182666E-01 -6.689736062E+00  8.207530100E+00  4.750000000E+00  0.00000E+00  9.000E+00
      -5     1     1     2     0   503  4.434571734E+01 -1.087806148E+01 -1.470887536E+01  4.820568828E+01  4.750000000E+00  0.00000E+00  9.000E+00
       1     1     1     2   502     0  7.059008025E+00 -5.046436491E+00 -1.924861451E+02  1.926816342E+02  2.697398305E-06  0.00000E+00  9.000E+00
#rwgt            1           9  -2.3982029436327196E-003           4      936961           0
</event>
<event>
      6   9999  3.45752E-01  7.50335E+00 -1.00000E+00  2.01369E-01
      21    -1     0     0   511   502  0.000000000E+00  0.000000000E+00  4.909843291E+01  4.909843291E+01  0.000000000E+00  0.00000E+00  9.000E+00
      21    -1     0     0   502   503  0.000000000E+00  0.000000000E+00 -6.701405874E+02  6.701405874E+02  0.000000000E+00  0.00000E+00  9.000E+00
      25     1     1     2     0     0 -6.888083160E+00  7.562031325E+00 -5.649915491E+02  5.787433768E+02  1.249952625E+02  0.00000E+00  9.000E+00
       5     1     1     2   501     0 -4.661404964E+00  2.098321951E+00 -4.089355058E+01  4.148465536E+01  4.750000000E+00  0.00000E+00  9.000E+00
      -5     1     1     2     0   503  4.459649812E+00 -1.211687166E+01 -5.590759300E+01  5.757541585E+01  4.750000000E+00  0.00000E+00  9.000E+00
      21     1     1     2   511   501  7.089838311E+00  2.456518385E+00  4.075053817E+01  4.143557229E+01  1.261592536E-06  0.00000E+00  9.000E+00
#rwgt            1           9   1.7156257359528373E-004           4      939910           0
</event>
<event>
      6   9999  3.45752E-01  9.14507E+00 -1.00000E+00  1.91377E-01
      21    -1     0     0   501   502  0.000000000E+00  0.000000000E+00  1.928512219E+02  1.928512219E+02  0.000000000E+00  0.00000E+00  9.000E+00
      21    -1     0     0   502   512  0.000000000E+00  0.000000000E+00 -1.467526647E+02  1.467526647E+02  0.000000000E+00  0.00000E+00  9.000E+00
      25     1     1     2     0     0  1.730318731E+01 -6.913105555E+00  8.495207395E+01  1.522804904E+02  1.250012063E+02  0.00000E+00  9.000E+00
       5     1     1     2   501     0 -3.554343400E-01 -2.293134950E-02  5.302631519E+01  5.323982966E+01  4.750000000E+00  0.00000E+00  9.000E+00
      -5     1     1     2     0   503 -1.960228813E+01  1.568736829E+01  1.309434003E+01  2.871180009E+01  4.750000000E+00  0.00000E+00  9.000E+00
      21     1     1     2   503   512  2.654535155E+00 -8.751331386E+00 -1.049741720E+02  1.053717664E+02  0.000000000E+00  0.00000E+00  9.000E+00
#rwgt            1           9  0.21307083465960974                4      942912           0
</event>
<event>
      6   9999 -3.45752E-01  1.28336E+01 -1.00000E+00  1.76459E-01
       2    -1     0     0   501     0  0.000000000E+00  0.000000000E+00  2.006519434E+03  2.006519434E+03  0.000000000E+00  0.00000E+00  9.000E+00
      21    -1     0     0   502   503  0.000000000E+00  0.000000000E+00 -1.461413827E+03  1.461413827E+03  0.000000000E+00  0.00000E+00  9.000E+00
      25     1     1     2     0     0  6.718624708E+00 -6.921349871E+01 -1.340683805E+03  1.348292625E+03  1.249971573E+02  0.00000E+00  9.000E+00
       5     1     1     2   501     0  1.048502767E+01  5.293879371E-02  5.073999279E+01  5.202929920E+01  4.750000000E+00  0.00000E+00  9.000E+00
      -5     1     1     2     0   503 -5.901479374E+00  7.524013911E+01 -1.039629710E+02  1.285564772E+02  4.750000000E+00  0.00000E+00  9.000E+00
       2     1     1     2   502     0 -1.130217300E+01 -6.079579188E+00  1.939012390E+03  1.939054860E+03  2.157918644E-05  0.00000E+00  9.000E+00
#rwgt            1           9  -1.1050749988267784E-004           4      946515           0
</event>
<event>
      6   9999  3.45752E-01  2.66475E+01 -1.00000E+00  1.51246E-01
      21    -1     0     0   501   502  0.000000000E+00  0.000000000E+00  3.646896599E+01  3.646896599E+01  0.000000000E+00  0.00000E+00  9.000E+00
      21    -1     0     0   502   511  0.000000000E+00  0.000000000E+00 -1.359596787E+03  1.359596787E+03  0.000000000E+00  0.00000E+00  9.000E+00
      25     1     1     2     0     0 -2.677229953E+01  4.729524168E+01 -7.984166594E+02  8.099676798E+02  1.249995374E+02  0.00000E+00  9.000E+00
       5     1     1     2   501     0 -3.027660742E+00  6.253901087E-01  2.878756748E+01  2.934014969E+01  4.750000000E+00  0.00000E+00  9.000E+00
      -5     1     1     2     0   503  8.393590307E+00 -3.205061413E+01 -3.177618163E+02  3.195196842E+02  4.750000000E+00  0.00000E+00  9.000E+00
      21     1     1     2   503   511  2.140636996E+01 -1.587001765E+01 -2.357369131E+02  2.372382396E+02  3.814697266E-06  0.00000E+00  9.000E+00
#rwgt            1           9  0.35877997744622669                4      950632           0
</event>
<event>
      6   9999  3.45752E-01  3.04581E+01 -1.00000E+00  1.47414E-01
      21    -1     0     0   501   512  0.000000000E+00  0.000000000E+00  2.188284853E+03  2.188284853E+03  0.000000000E+00  0.00000E+00  9.000E+00
      21    -1     0     0   502   503  0.000000000E+00  0.000000000E+00 -1.336708184E+03  1.336708184E+03  0.000000000E+00  0.00000E+00  9.000E+00
      25     1     1     2     0     0  4.399547150E+01 -1.364576957E+02 -1.045214928E+03  1.062382967E+03  1.250080817E+02  0.00000E+00  9.000E+00
       5     1     1     2   501     0  7.452730163E+00 -7.985760870E+00  2.715674239E+01  2.965411811E+01  4.750000000E+00  0.00000E+00  9.000E+00
      -5     1     1     2     0   503 -4.377144518E+01  1.149686900E+02 -2.680942495E+02  2.950098781E+02  4.750000000E+00  0.00000E+00  9.000E+00
      21     1     1     2   502   512 -7.676756478E+00  2.947476650E+01  2.137729104E+03  2.137946074E+03  5.285799584E-05  0.00000E+00  9.000E+00
#rwgt            1           9   1.1313998178706376E-005           4      952261           0
</event>
<event>
      6   9999 -3.45752E-01  6.88245E+01 -1.00000E+00  1.27759E-01
       2    -1     0     0   501     0  0.000000000E+00  0.000000000E+00  1.722176008E+03  1.722176008E+03  0.000000000E+00  0.00000E+00  9.000E+00
      21    -1     0     0   502   503  0.000000000E+00  0.000000000E+00 -2.250437255E+03  2.250437255E+03  0.000000000E+00  0.00000E+00  9.000E+00
      25     1     1     2     0     0  1.728869392E+02  6.148846899E+01 -1.453610002E+03  1.470467885E+03  1.249921448E+02  0.00000E+00  9.000E+00
       5     1     1     2   501     0 -1.241173953E+02 -3.348096909E+01 -2.095447504E+02  2.458814104E+02  4.750000000E+00  0.00000E+00  9.000E+00
      -5     1     1     2     0   503 -1.127789854E+02 -5.329774594E+01 -5.530273594E+02  5.669405366E+02  4.750000000E+00  0.00000E+00  9.000E+00
       2     1     1     2   502     0  6.400944141E+01  2.529024604E+01  1.687920865E+03  1.689323431E+03  2.157918644E-05  0.00000E+00  9.000E+00
#rwgt            1           9  -3.0997688583330796E-002           4      953960           0
</event>
<event>
      6   9999  3.45752E-01  8.85453E+00 -1.00000E+00  1.92936E-01
      21    -1     0     0   501   502  0.000000000E+00  0.000000000E+00  8.466299406E+02  8.466299406E+02  0.000000000E+00  0.00000E+00  9.000E+00
      21    -1     0     0   511   503  0.000000000E+00  0.000000000E+00 -1.572091407E+02  1.572091407E+02  0.000000000E+00  0.00000E+00  9.000E+00
      25     1     1     2     0     0  3.385907258E+00 -1.328884652E+01  3.293553324E+02  3.525449842E+02  1.249998925E+02  0.00000E+00  9.000E+00
       5     1     1     2   501     0 -1.065933400E-01  3.258956673E+00  4.289377764E+02  4.289764687E+02  4.750000000E+00  0.00000E+00  9.000E+00
      -5     1     1     2     0   503 -1.051683719E+01  1.513096159E+01  7.540490271E+01  7.776896371E+01  4.750000000E+00  0.00000E+00  9.000E+00
      21     1     1     2   511   502  7.237523270E+00 -5.101071740E+00 -1.442772116E+02  1.445486646E+02  4.672030912E-06  0.00000E+00  9.000E+00
#rwgt            1           9   2.5788292885106086E-003           4      954756           0
</event>
<event>
      6   9999  3.45752E-01  1.88456E+01 -1.00000E+00  1.62207E-01
      21    -1     0     0   512   502  0.000000000E+00  0.000000000E+00  2.768634232E+01  2.768634232E+01  0.000000000E+00  0.00000E+00  9.000E+00
      21    -1     0     0   502   503  0.000000000E+00  0.000000000E+00 -1.168413381E+03  1.168413381E+03  0.000000000E+00  0.00000E+00  9.000E+00
      25     1     1     2     0     0  1.575857152E+01 -3.407995885E+01 -5.256611520E+02  5.416226547E+02  1.250027090E+02  0.00000E+00  9.000E+00
       5     1     1     2   501     0  2.324866133E+00  6.879636189E-01  1.585407302E+01  1.672699697E+01  4.750000000E+00  0.00000E+00  9.000E+00
      -5     1     1     2     0   503  7.152197123E-01  3.206332914E+01 -6.041092287E+02  6.049785874E+02  4.750000000E+00  0.00000E+00  9.000E+00
      21     1     1     2   512   501 -1.879865736E+01  1.328666089E+00 -2.681073082E+01  3.277148393E+01  3.371747881E-07  0.00000E+00  9.000E+00
#rwgt            1           9   1.3226931935321503E-002           4      957552           0
</event>
<event>
      6   9999  3.45752E-01  8.77355E+00 -1.00000E+00  1.93385E-01
      21    -1     0     0   501   502  0.000000000E+00  0.000000000E+00  9.272414966E+00  9.272414966E+00  0.000000000E+00  0.00000E+00  9.000E+00
      21    -1     0     0   511   503  0.000000000E+00  0.000000000E+00 -8.961968974E+02  8.961968974E+02  0.000000000E+00  0.00000E+00  9.000E+00
      25     1     1     2     0     0  1.243438585E+01  1.140603338E+01 -6.822600092E+02  6.938216268E+02  1.250000724E+02  0.00000E+00  9.000E+00
       5     1     1     2   501     0 -1.177230651E+00  1.601259798E+00 -2.466339260E-01  5.154923204E+00  4.750000000E+00  0.00000E+00  9.000E+00
      -5     1     1     2     0   503 -1.474491867E+01 -4.956785269E+00 -7.335287498E+01  7.513447355E+01  4.750000000E+00  0.00000E+00  9.000E+00
      21     1     1     2   511   502  3.487763479E+00 -8.050507907E+00 -1.310649644E+02  1.313582889E+02  2.697398305E-06  0.00000E+00  9.000E+00
#rwgt            1           9   5.3223264528950097E-004           4      959787           0
</event>
<event>
      6   9999  3.45752E-01  1.84359E+01 -1.00000E+00  1.62958E-01
      21    -1     0     0   502   503  0.000000000E+00  0.000000000E+00  4.635840124E+03  4.635840124E+03  0.000000000E+00  0.00000E+00  9.000E+00
      21    -1     0     0   512   502  0.000000000E+00  0.000000000E+00 -1.413169154E+01  1.413169154E+01  0.000000000E+00  0.00000E+00  9.000E+00
      25     1     1     2     0     0 -3.049461067E+00  1.455853042E+01  4.353691991E+03  4.355511748E+03  1.250095152E+02  0.00000E+00  9.000E+00
       5     1     1     2   501     0 -1.552850514E-01  3.050034462E+00  1.082936360E+02  1.084407715E+02  4.750000000E+00  0.00000E+00  9.000E+00
      -5     1     1     2     0   503 -1.042822868E+00  3.313473836E-01  1.663552548E+02  1.664266523E+02  4.750000000E+00  0.00000E+00  9.000E+00
      21     1     1     2   512   501  4.247568986E+00 -1.793991227E+01 -6.632450069E+00  1.959264373E+01  2.596738447E-06  0.00000E+00  9.000E+00
#rwgt            1           9   9.3831090372483144E-003           4      962270           0
</event>
<event>
      6   9999  3.45752E-01  1.06676E+01 -1.00000E+00  1.84285E-01
      21    -1     0     0   511   502  0.000000000E+00  0.000000000E+00  2.253587251E+01  2.253587251E+01  0.000000000E+00  0.00000E+00  9.000E+00
      21    -1     0     0   502   503  0.000000000E+00  0.000000000E+00 -2.506829659E+03  2.506829659E+03  0.000000000E+00  0.00000E+00  9.000E+00
      25     1     1     2     0     0 -5.889414691E+00  1.569623960E+01 -2.205009811E+03  2.208613979E+03  1.250055302E+02  0.00000E+00  9.000E+00
       5     1     1     2   501     0  1.207173915E-01 -2.904232661E-01 -5.668743311E+01  5.688696240E+01  4.750000000E+00  0.00000E+00  9.000E+00
      -5     1     1     2     0   503  1.171518790E+01 -2.426229244E+01 -2.410242214E+02  2.425719321E+02  4.750000000E+00  0.00000E+00  9.000E+00
      21     1     1     2   511   501 -5.946490604E+00  8.856476103E+00  1.842767938E+01  2.129265805E+01  1.563415176E-06  0.00000E+00  9.000E+00
#rwgt            1           9   2.4585427370601168E-004           4      963381           0
</event>
<event>
      6   9999 -3.45752E-01  1.10828E+01 -1.00000E+00  1.82610E-01
      21    -1     0     0   512   502  0.000000000E+00  0.000000000E+00  1.013029773E+01  1.013029773E+01  0.000000000E+00  0.00000E+00  9.000E+00
      21    -1     0     0   502   503  0.000000000E+00  0.000000000E+00 -2.785073793E+03  2.785073793E+03  0.000000000E+00  0.00000E+00  9.000E+00
      25     1     1     2     0     0 -1.264988020E+01 -1.013843614E+01 -2.684643298E+03  2.687600478E+03  1.249955458E+02  0.00000E+00  9.000E+00
       5     1     1     2   501     0 -1.344056709E+00  1.724788303E+00  6.715976939E+00  8.511652564E+00  4.750000000E+00  0.00000E+00  9.000E+00
      -5     1     1     2     0   503  5.120807984E+00  1.773227008E+00 -6.059243126E+01  6.101944145E+01  4.750000000E+00  0.00000E+00  9.000E+00
      21     1     1     2   512   501  8.873128923E+00  6.640420829E+00 -3.642374373E+01  3.807251913E+01  1.168007728E-06  0.00000E+00  9.000E+00
#rwgt            1           9  -1.8681810758030691E-005           4      965391           0
</event>
<event>
      6   9999  3.45752E-01  9.89883E+00 -1.00000E+00  1.87660E-01
      21    -1     0     0   511   502  0.000000000E+00  0.000000000E+00  4.009157308E+02  4.009157308E+02  0.000000000E+00  0.00000E+00  9.000E+00
      21    -1     0     0   502   503  0.000000000E+00  0.000000000E+00 -7.960735348E+02  7.960735348E+02  0.000000000E+00  0.00000E+00  9.000E+00
      25     1     1     2     0     0 -2.856345427E+01  6.820325333E-01 -4.122332203E+02  4.317127478E+02  1.249933300E+02  0.00000E+00  9.000E+00
       5     1     1     2   501     0 -6.798902182E-01 -3.686670148E+00 -5.811324641E+01  5.842743958E+01  4.750000000E+00  0.00000E+00  9.000E+00
      -5     1     1     2     0   503  2.157121003E+01 -3.250376707E+00 -3.153728666E+02  3.161621255E+02  4.750000000E+00  0.00000E+00  9.000E+00
      21     1     1     2   511   501  7.672134452E+00  6.255014321E+00  3.905615294E+02  3.906869528E+02  7.629394531E-06  0.00000E+00  9.000E+00
#rwgt            1           9   4.0584116863140604E-002           4      968471           0
</event>
<event>
      6   9999  3.45752E-01  8.30200E+00 -1.00000E+00  1.96129E-01
      21    -1     0     0   502   512  0.000000000E+00  0.000000000E+00  7.529610280E+00  7.529610280E+00  0.000000000E+00  0.00000E+00  9.000E+00
      21    -1     0     0   501   502  0.000000000E+00  0.000000000E+00 -7.951815560E+02  7.951815560E+02  0.000000000E+00  0.00000E+00  9.000E+00
      25     1     1     2     0     0  5.288145178E+00 -5.657408206E+00 -7.277599447E+02  7.384575770E+02  1.250003402E+02  0.00000E+00  9.000E+00
       5     1     1     2   501     0  2.150915966E-01  9.349048651E-02 -2.355763194E+01  2.403288429E+01  4.750000000E+00  0.00000E+00  9.000E+00
      -5     1     1     2     0   503  3.311896689E-01 -3.422415663E-01 -2.818817146E+01  2.858954925E+01  4.750000000E+00  0.00000E+00  9.000E+00
      21     1     1     2   503   512 -5.834426443E+00  5.906159286E+00 -8.146197546E+00  1.163115574E+01  5.057621821E-07  0.00000E+00  9.000E+00
#rwgt            1           9   4.3426893586603621E-003           4      970800           0
</event>
<event>
      6   9999  3.45752E-01  4.88238E+00 -1.00000E+00  2.31196E-01
      21    -1     0     0   511   503  0.000000000E+00  0.000000000E+00  2.065213505E+01  2.065213505E+01  0.000000000E+00  0.00000E+00  9.000E+00
      21    -1     0     0   501   502  0.000000000E+00  0.000000000E+00 -7.248175413E+02  7.248175413E+02  0.000000000E+00  0.00000E+00  9.000E+00
      25     1     1     2     0     0  1.387670444E+00  1.193314818E+01 -6.579418579E+02  6.698183437E+02  1.249991984E+02  0.00000E+00  9.000E+00
       5     1     1     2   501     0  1.385909594E-02  7.550448665E-01 -3.067133327E+00  5.704392314E+00  4.750000000E+00  0.00000E+00  9.000E+00
      -5     1     1     2     0   503 -3.128928082E+00 -8.121605312E+00 -5.565356314E+01  5.652992353E+01  4.750000000E+00  0.00000E+00  9.000E+00
      21     1     1     2   511   502  1.727398542E+00 -4.566587738E+00  1.249714808E+01  1.341701679E+01  4.768371582E-07  0.00000E+00  9.000E+00
#rwgt            1           9   1.8804214010803653E-006           4      972954           0
</event>
<event>
      6   9999 -3.45752E-01  3.53648E+01 -1.00000E+00  1.43360E-01
      -4    -1     0     0     0   502  0.000000000E+00  0.000000000E+00  4.470249049E+01  4.470249049E+01  0.000000000E+00  0.00000E+00  9.000E+00
      21    -1     0     0   502   503  0.000000000E+00  0.000000000E+00 -2.067696307E+03  2.067696307E+03  0.000000000E+00  0.00000E+00  9.000E+00
      25     1     1     2     0     0  1.165460121E+02 -8.114830771E+01 -5.791452932E+02  6.092632128E+02  1.249974843E+02  0.00000E+00  9.000E+00
       5     1     1     2   501     0 -1.039881852E+02  7.358581299E+01 -1.071534014E+03  1.079090414E+03  4.750000000E+00  0.00000E+00  9.000E+00
      -5     1     1     2     0   503  1.946103524E+01  2.257781183E+01 -3.852188826E+02  3.863995853E+02  4.750000000E+00  0.00000E+00  9.000E+00
      -4     1     1     2     0   501 -3.201886212E+01 -1.501531712E+01  1.290437348E+01  3.764558586E+01  2.286830675E-06  0.00000E+00  9.000E+00
#rwgt            1           9  -30.646713985805274                4      976395           0
</event>
<event>
      6   9999  3.45752E-01  5.27104E+00 -1.00000E+00  2.22206E-01
      21    -1     0     0   511   502  0.000000000E+00  0.000000000E+00  2.554319727E+01  2.554319727E+01  0.000000000E+00  0.00000E+00  9.000E+00
      21    -1     0     0   502   503  0.000000000E+00  0.000000000E+00 -3.595322003E+03  3.595322003E+03  0.000000000E+00  0.00000E+00  9.000E+00
      25     1     1     2     0     0  1.239268881E+01 -1.696288563E+01 -3.081966902E+03  3.084572309E+03  1.250001096E+02  0.00000E+00  9.000E+00
       5     1     1     2   501     0  2.424884829E+00  5.998662314E+00  2.002290640E+01  2.157181718E+01  4.750000000E+00  0.00000E+00  9.000E+00
      -5     1     1     2     0   503 -2.006139068E+01  1.149926262E+01 -5.088127681E+02  5.093600769E+02  4.750000000E+00  0.00000E+00  9.000E+00
      21     1     1     2   511   501  5.243817035E+00 -5.350393033E-01  9.779582140E-01  5.360996775E+00  1.744136201E-07  0.00000E+00  9.000E+00
#rwgt            1           9   7.4447103437242326E-002           4      977905           0
</event>
<event>
      6   9999  3.45752E-01  2.20776E+01 -1.00000E+00  1.57002E-01
      21    -1     0     0   501   502  0.000000000E+00  0.000000000E+00  1.178079860E+02  1.178079860E+02  0.000000000E+00  0.00000E+00  9.000E+00
      21    -1     0     0   502   512  0.000000000E+00  0.000000000E+00 -4.294318606E+02  4.294318606E+02  0.000000000E+00  0.00000E+00  9.000E+00
      25     1     1     2     0     0 -4.170885929E+00 -7.814891210E+01 -3.605154836E+02  3.895141539E+02  1.250008537E+02  0.00000E+00  9.000E+00
       5     1     1     2   501     0  1.805631679E+00 -2.784028157E+00  5.381987255E+01  5.413088121E+01  4.750000000E+00  0.00000E+00  9.000E+00
      -5     1     1     2     0   503  2.204690108E+01  7.093026220E+01  1.249418401E+01  7.547075643E+01  4.750000000E+00  0.00000E+00  9.000E+00
      21     1     1     2   503   512 -1.968164683E+01  1.000267806E+01 -1.742244766E+01  2.812405506E+01  2.384185791E-07  0.00000E+00  9.000E+00
#rwgt            1           9  0.29684620387177901                4      984076           0
</event>
<event>
      6   9999  3.45752E-01  4.17624E+00 -1.00000E+00  2.44037E-01
      21    -1     0     0   501   502  0.000000000E+00  0.000000000E+00  1.236964335E+01  1.236964335E+01  0.000000000E+00  0.00000E+00  9.000E+00
      21    -1     0     0   511   503  0.000000000E+00  0.000000000E+00 -9.329991332E+02  9.329991332E+02  0.000000000E+00  0.00000E+00  9.000E+00
      25     1     1     2     0     0 -6.183752035E+00  8.742163084E+00 -6.280705430E+02  6.404782485E+02  1.250004625E+02  0.00000E+00  9.000E+00
       5     1     1     2   501     0  1.142395118E-01 -2.126206993E+00  4.786425920E+00  7.071504785E+00  4.750000000E+00  0.00000E+00  9.000E+00
      -5     1     1     2     0   503  1.011630828E+01 -5.584256265E+00 -2.063431240E+02  2.067209978E+02  4.750000000E+00  0.00000E+00  9.000E+00
      21     1     1     2   511   502 -4.046795757E+00 -1.031699826E+00 -9.100224872E+01  9.109802540E+01  0.000000000E+00  0.00000E+00  9.000E+00
#rwgt            1           9   4.3114500169863020E-005           4      986134           0
</event>
<event>
      6   9999  3.45752E-01  1.75390E+01 -1.00000E+00  1.64689E-01
      21    -1     0     0   501   502  0.000000000E+00  0.000000000E+00  6.607675894E+00  6.607675894E+00  0.000000000E+00  0.00000E+00  9.000E+00
      21    -1     0     0   502   512  0.000000000E+00  0.000000000E+00 -3.467770312E+03  3.467770312E+03  0.000000000E+00  0.00000E+00  9.000E+00
      25     1     1     2     0     0  9.906881332E+00  3.535846139E+01 -2.043113300E+03  2.047262860E+03  1.249995669E+02  0.00000E+00  9.000E+00
       5     1     1     2   501     0 -6.058590655E+00 -4.036084084E+00 -1.236311147E+00  8.779946510E+00  4.750000000E+00  0.00000E+00  9.000E+00
      -5     1     1     2     0   503 -1.413447755E+01 -4.552833247E+01 -9.803173377E+02  9.814872682E+02  4.750000000E+00  0.00000E+00  9.000E+00
      21     1     1     2   503   512  1.028618687E+01  1.420595516E+01 -4.364956872E+02  4.368479138E+02  5.394796609E-06  0.00000E+00  9.000E+00
#rwgt            1           9   3.9953639000097453E-005           4      990995           0
</event>
<event>
      6   9999  3.45752E-01  8.75025E+00 -1.00000E+00  1.93515E-01
      21    -1     0     0   501   502  0.000000000E+00  0.000000000E+00  8.698183783E+01  8.698183783E+01  0.000000000E+00  0.00000E+00  9.000E+00
       2    -1     0     0   502     0  0.000000000E+00  0.000000000E+00 -1.326184075E+03  1.326184075E+03  0.000000000E+00  0.00000E+00  9.000E+00
      25     1     1     2     0     0 -2.525515839E+01  2.484127945E-01 -4.213031368E+01  1.343039741E+02  1.249988375E+02  0.00000E+00  9.000E+00
       5     1     1     2   501     0  3.392952632E-01 -2.867248328E+00  2.706753462E+01  2.763241149E+01  4.750000000E+00  0.00000E+00  9.000E+00
      -5     1     1     2     0   503  2.627473008E+01 -6.025261139E+00 -3.150495659E-01  2.737383730E+01  4.750000000E+00  0.00000E+00  9.000E+00
       2     1     1     2   503     0 -1.358866951E+00  8.644096672E+00 -1.223824409E+03  1.223855690E+03  2.157918644E-05  0.00000E+00  9.000E+00
#rwgt            1           9   2.3918921723652909E-003           4      992835           0
</event>
<event>
      6   9999  3.45752E-01  1.62690E+01 -1.00000E+00  1.67370E-01
      21    -1     0     0   501   502  0.000000000E+00  0.000000000E+00  4.477049000E+01  4.477049000E+01  0.000000000E+00  0.00000E+00  9.000E+00
       1    -1     0     0   502     0  0.000000000E+00  0.000000000E+00 -7.149499387E+02  7.149499387E+02  0.000000000E+00  0.00000E+00  9.000E+00
      25     1     1     2     0     0  1.247068819E+01 -1.772304233E+01 -1.755247703E+02  2.165721362E+02  1.249996836E+02  0.00000E+00  9.000E+00
       5     1     1     2   501     0  1.314519809E+00  5.641917418E+00  2.025922814E+01  2.159995415E+01  4.750000000E+00  0.00000E+00  9.000E+00
      -5     1     1     2     0   503 -1.626136802E+01  2.816057098E+01 -8.216179174E+01  8.849052135E+01  4.750000000E+00  0.00000E+00  9.000E+00
       1     1     1     2   503     0  2.476160018E+00 -1.607944606E+01 -4.327521149E+02  4.330578170E+02  5.394796609E-06  0.00000E+00  9.000E+00
#rwgt            1           9   2.3261550715345580E-002           4      995878           0
</event>
<event>
      6   9999  3.45752E-01  4.86621E+01 -1.00000E+00  1.35421E-01
      21    -1     0     0   511   502  0.000000000E+00  0.000000000E+00  3.366004499E+01  3.366004499E+01  0.000000000E+00  0.00000E+00  9.000E+00
      21    -1     0     0   502   503  0.000000000E+00  0.000000000E+00 -1.464746148E+03  1.464746148E+03  0.000000000E+00  0.00000E+00  9.000E+00
      25     1     1     2     0     0  2.178128542E+01 -3.514622065E+01 -9.674794361E+02  9.763971563E+02  1.250010648E+02  0.00000E+00  9.000E+00
       5     1     1     2   501     0 -3.249563320E+01  1.190412600E+00 -1.703685426E+02  1.735090374E+02  4.750000000E+00  0.00000E+00  9.000E+00
      -5     1     1     2     0   503 -3.102280687E+01  8.935587883E+00 -2.978386511E+02  2.996209003E+02  4.750000000E+00  0.00000E+00  9.000E+00
      21     1     1     2   511   501  4.173715465E+01  2.502022017E+01  4.600526640E+00  4.887909923E+01  1.879201266E-06  0.00000E+00  9.000E+00
#rwgt            1           9   10.213672006049269                4      997687           0
</event>
<event>
      6   9999  3.45752E-01  1.91416E+02 -1.00000E+00  1.09557E-01
      -1    -1     0     0     0   502  0.000000000E+00  0.000000000E+00  1.948682348E+02  1.948682348E+02  0.000000000E+00  0.00000E+00  9.000E+00
      21    -1     0     0   501   512  0.000000000E+00  0.000000000E+00 -4.261382109E+02  4.261382109E+02  0.000000000E+00  0.00000E+00  9.000E+00
      25     1     1     2     0     0  2.529433629E+01 -6.417499918E+01 -1.241471777E+02  1.891994721E+02  1.250027381E+02  0.00000E+00  9.000E+00
       5     1     1     2   501     0  1.191430561E+01  2.743997190E+00 -1.171166269E+01  1.758424698E+01  4.750000000E+00  0.00000E+00  9.000E+00
      -5     1     1     2     0   502  1.414461860E+02 -7.289096784E+00 -1.585600570E+02  2.126593724E+02  4.750000000E+00  0.00000E+00  9.000E+00
      -1     1     1     2     0   512 -1.786548279E+02  6.872009878E+01  6.314892136E+01  2.015633543E+02  3.814697266E-06  0.00000E+00  9.000E+00
#rwgt            1           1   1.6326725153913522E-003           4      998314           0
</event>
<event>
      6   9999  3.45752E-01  2.64598E+01 -1.00000E+00  1.51454E-01
      21    -1     0     0   501   502  0.000000000E+00  0.000000000E+00  4.796581192E+02  4.796581192E+02  0.000000000E+00  0.00000E+00  9.000E+00
      21    -1     0     0   502   511  0.000000000E+00  0.000000000E+00 -1.310856978E+02  1.310856978E+02  0.000000000E+00  0.00000E+00  9.000E+00
      25     1     1     2     0     0 -1.280683399E+02  2.778988969E+01  2.052153721E+02  2.737007802E+02  1.249999621E+02  0.00000E+00  9.000E+00
       5     1     1     2   501     0 -5.366057854E+00 -4.625584063E+00  1.924221124E+02  1.926110652E+02  4.750000000E+00  0.00000E+00  9.000E+00
      -5     1     1     2     0   503  1.070132079E+02 -2.173591822E+01 -3.750537780E+01  1.155573133E+02  4.750000000E+00  0.00000E+00  9.000E+00
      21     1     1     2   503   511  2.642118985E+01 -1.428387415E+00 -1.155968522E+01  2.887465820E+01  5.331201500E-07  0.00000E+00  9.000E+00
#rwgt            1           9   8.7258270781304798E-003           4      998621           0
</event>
<event>
      6   9999  3.45752E-01  2.62679E+01 -1.00000E+00  1.51670E-01
      21    -1     0     0   501   502  0.000000000E+00  0.000000000E+00  1.356431209E+02  1.356431209E+02  0.000000000E+00  0.00000E+00  9.000E+00
      21    -1     0     0   502   512  0.000000000E+00  0.000000000E+00 -2.813892887E+02  2.813892887E+02  0.000000000E+00  0.00000E+00  9.000E+00
      25     1     1     2     0     0 -6.880027754E+01 -8.846580130E+01 -5.015800479E+01  1.752132081E+02  1.249966666E+02  0.00000E+00  9.000E+00
       5     1     1     2   501     0  2.274330479E+00  5.293848493E+00  3.391747242E+01  3.472974009E+01  4.750000000E+00  0.00000E+00  9.000E+00
      -5     1     1     2     0   503  7.447084621E+01  1.082095431E+02 -8.874675594E+01  1.585993737E+02  4.750000000E+00  0.00000E+00  9.000E+00
      21     1     1     2   503   512 -7.944899155E+00 -2.503759032E+01 -4.075887944E+01  4.849008770E+01  6.743495762E-07  0.00000E+00  9.000E+00
#rwgt            1           9   1.4224432102515033E-002           4     1000869           0
</event>
<event>
      6   9999  3.45752E-01  3.05226E+01 -1.00000E+00  1.47354E-01
      21    -1     0     0   511   502  0.000000000E+00  0.000000000E+00  9.657203621E+02  9.657203621E+02  0.000000000E+00  0.00000E+00  9.000E+00
      21    -1     0     0   502   503  0.000000000E+00  0.000000000E+00 -1.975748171E+02  1.975748171E+02  0.000000000E+00  0.00000E+00  9.000E+00
      25     1     1     2     0     0 -4.092249253E+01  1.811929600E+01 -1.074483979E+02  1.708015377E+02  1.250001912E+02  0.00000E+00  9.000E+00
       5     1     1     2   501     0 -1.184034859E+01 -2.331167472E+01  4.847221520E+00  2.701270237E+01  4.750000000E+00  0.00000E+00  9.000E+00
      -5     1     1     2     0   503  2.513328021E+01 -7.778291035E+00 -4.331960337E+01  5.090514828E+01  4.750000000E+00  0.00000E+00  9.000E+00
      21     1     1     2   511   501  2.762956091E+01  1.297066976E+01  9.140663248E+02  9.145757908E+02  1.078959322E-05  0.00000E+00  9.000E+00
#rwgt            1           9   5.2201817265588528E-002           4     1002641           0
</event>
<event>
      6   9999  3.45752E-01  1.29498E+01 -1.00000E+00  1.76095E-01
      21    -1     0     0   512   502  0.000000000E+00  0.000000000E+00  2.541356058E+02  2.541356058E+02  0.000000000E+00  0.00000E+00  9.000E+00
      21    -1     0     0   502   503  0.000000000E+00  0.000000000E+00 -1.062969945E+03  1.062969945E+03  0.000000000E+00  0.00000E+00  9.000E+00
      25     1     1     2     0     0 -3.392340909E+01  2.732835469E+01 -2.469889567E+02  2.802234802E+02  1.249960698E+02  0.00000E+00  9.000E+00
       5     1     1     2   501     0 -4.597849580E+00 -3.246418068E+00  1.024528315E+01  1.261775645E+01  4.750000000E+00  0.00000E+00  9.000E+00
      -5     1     1     2     0   503  2.565435556E+01 -2.554441917E+01 -7.975740321E+02  7.984093953E+02  4.750000000E+00  0.00000E+00  9.000E+00
      21     1     1     2   512   501  1.286690311E+01  1.462482550E+00  2.254833662E+02  2.258549191E+02  2.697398305E-06  0.00000E+00  9.000E+00
#rwgt            1           9   3.8328200829111148E-004           4     1003798           0
</event>
<event>
      6   9999  3.45752E-01  9.64719E+00 -1.00000E+00  1.88852E-01
      21    -1     0     0   501   511  0.000000000E+00  0.000000000E+00  1.048686441E+01  1.048686441E+01  0.000000000E+00  0.00000E+00  9.000E+00
      21    -1     0     0   502   503  0.000000000E+00  0.000000000E+00 -9.217490255E+02  9.217490255E+02  0.000000000E+00  0.00000E+00  9.000E+00
      25     1     1     2     0     0  1.680838213E+00  2.293599629E+01 -6.730029993E+02  6.848868935E+02  1.249325204E+02  0.00000E+00  9.000E+00
       5     1     1     2   501     0 -1.455156760E+00 -3.494066063E-01 -1.484792888E-02  4.980189417E+00  4.750000000E+00  0.00000E+00  9.000E+00
      -5     1     1     2     0   503 -4.122985088E+00 -3.141151210E+01 -2.120162650E+02  2.144228095E+02  4.750000000E+00  0.00000E+00  9.000E+00
      21     1     1     2   502   511  3.897303635E+00  8.824922419E+00 -2.622804886E+01  2.794599754E+01  5.840038640E-07  0.00000E+00  9.000E+00
#rwgt            1           9   7.8282522342096716E-003           4     1006572           0
</event>
<event>
      6   9999 -3.45752E-01  1.39998E+01 -1.00000E+00  1.73010E-01
      21    -1     0     0   501   512  0.000000000E+00  0.000000000E+00  5.769971339E+00  5.769971339E+00  0.000000000E+00  0.00000E+00  9.000E+00
      21    -1     0     0   502   503  0.000000000E+00  0.000000000E+00 -2.945226697E+03  2.945226697E+03  0.000000000E+00  0.00000E+00  9.000E+00
      25     1     1     2     0     0 -2.906233704E+01 -2.530623396E+01 -2.735971073E+03  2.739096318E+03  1.250036014E+02  0.00000E+00  9.000E+00
       5     1     1     2   501     0 -7.072346819E+00  1.610407071E-03 -1.018875327E+01  1.328123810E+01  4.750000000E+00  0.00000E+00  9.000E+00
      -5     1     1     2     0   503  2.522032397E+01  1.653704292E+01 -1.101910292E+02  1.143423104E+02  4.750000000E+00  0.00000E+00  9.000E+00
      21     1     1     2   502   512  1.091435988E+01  8.767580634E+00 -8.310586993E+01  8.427680190E+01  9.536743164E-07  0.00000E+00  9.000E+00
#rwgt            1           9  -2.2267203847912641E-003           4     1009103           0
</event>
<event>
      6   9999  3.45752E-01  1.70955E+01 -1.00000E+00  1.65592E-01
      21    -1     0     0   501   511  0.000000000E+00  0.000000000E+00  8.563644485E+02  8.563644485E+02  0.000000000E+00  0.00000E+00  9.000E+00
      21    -1     0     0   502   503  0.000000000E+00  0.000000000E+00 -1.336364753E+03  1.336364753E+03  0.000000000E+00  0.00000E+00  9.000E+00
      25     1     1     2     0     0  1.170171553E+01 -2.149830856E+01 -1.279918576E+03  1.286240871E+03  1.249996399E+02  0.00000E+00  9.000E+00
       5     1     1     2   501     0 -5.208687376E-01 -3.198819155E+00  1.590844859E+00  5.966325133E+00  4.750000000E+00  0.00000E+00  9.000E+00
      -5     1     1     2     0   503 -1.485211963E+01  8.000500161E+00 -4.950578324E+01  5.251645965E+01  4.750000000E+00  0.00000E+00  9.000E+00
      21     1     1     2   502   511  3.671272837E+00  1.669662755E+01  8.478332092E+02  8.480055461E+02  1.078959322E-05  0.00000E+00  9.000E+00
#rwgt            1           9   36.028412781270340                4     1011229           0
</event>
<event>
      6   9999 -3.45752E-01  1.72588E+01 -1.00000E+00  1.65256E-01
      21    -1     0     0   502   512  0.000000000E+00  0.000000000E+00  4.704775140E+01  4.704775140E+01  0.000000000E+00  0.00000E+00  9.000E+00
      21    -1     0     0   501   502  0.000000000E+00  0.000000000E+00 -5.390021366E+02  5.390021366E+02  0.000000000E+00  0.00000E+00  9.000E+00
      25     1     1     2     0     0 -1.124349388E+01 -6.494586152E+00 -5.230310877E+02  5.379169135E+02  1.249979652E+02  0.00000E+00  9.000E+00
       5     1     1     2   501     0 -5.321575414E-01 -2.039903735E+00  5.131356163E+00  7.303267417E+00  4.750000000E+00  0.00000E+00  9.000E+00
      -5     1     1     2     0   503 -1.171424098E+00 -2.877686768E+00  2.253297935E+01  2.323684518E+01  4.750000000E+00  0.00000E+00  9.000E+00
      21     1     1     2   503   512  1.294707552E+01  1.141217665E+01  3.412367030E+00  1.759286188E+01  6.179941104E-07  0.00000E+00  9.000E+00
#rwgt            1           9  -8.5069055166586638E-002           4     1012919           0
</event>
<event>
      6   9999  3.45752E-01  9.57550E+01 -1.00000E+00  1.21241E-01
      21    -1     0     0   511   502  0.000000000E+00  0.000000000E+00  6.040131520E+02  6.040131520E+02  0.000000000E+00  0.00000E+00  9.000E+00
      21    -1     0     0   502   503  0.000000000E+00  0.000000000E+00 -1.340619113E+03  1.340619113E+03  0.000000000E+00  0.00000E+00  9.000E+00
      25     1     1     2     0     0 -3.743432338E+01  5.645850323E+01 -1.820708568E+02  2.310018728E+02  1.249927086E+02  0.00000E+00  9.000E+00
       5     1     1     2   501     0  1.269559742E+02  7.554889415E+01 -3.373319603E+02  3.682945408E+02  4.750000000E+00  0.00000E+00  9.000E+00
      -5     1     1     2     0   503 -1.735730617E+02 -1.778809955E+02 -7.571771599E+02  7.969373064E+02  4.750000000E+00  0.00000E+00  9.000E+00
      21     1     1     2   511   501  8.405141089E+01  4.587359809E+01  5.399740158E+02  5.483985453E+02  1.321449896E-05  0.00000E+00  9.000E+00
#rwgt            1           9   5.7131018676238939E-002           4     1015559           0
</event>
<event>
      6   9999  3.45752E-01  4.39787E+01 -1.00000E+00  1.37839E-01
      21    -1     0     0   512   502  0.000000000E+00  0.000000000E+00  2.943887073E+02  2.943887073E+02  0.000000000E+00  0.00000E+00  9.000E+00
      21    -1     0     0   502   503  0.000000000E+00  0.000000000E+00 -9.283885978E+02  9.283885978E+02  0.000000000E+00  0.00000E+00  9.000E+00
      25     1     1     2     0     0 -1.983745989E+01 -5.764340536E+01 -7.382399723E+02  7.512252384E+02  1.249992608E+02  0.00000E+00  9.000E+00
       5     1     1     2   501     0  5.221796216E+00 -7.600467811E+00  3.416478057E+00  1.092103882E+01  4.750000000E+00  0.00000E+00  9.000E+00
      -5     1     1     2     0   503  3.223887011E+01  2.495060307E+01 -1.758030905E+02  1.805302370E+02  4.750000000E+00  0.00000E+00  9.000E+00
      21     1     1     2   512   501 -1.762320644E+01  4.029327010E+01  2.766266943E+02  2.801007908E+02  5.394796609E-06  0.00000E+00  9.000E+00
#rwgt            1           9   2.1803078271795086E-004           4     1016354           0
</event>
<event>
      6   9999  3.45752E-01  1.21095E+01 -1.00000E+00  1.78843E-01
      21    -1     0     0   502   511  0.000000000E+00  0.000000000E+00  1.493847185E+01  1.493847185E+01  0.000000000E+00  0.00000E+00  9.000E+00
      21    -1     0     0   501   502  0.000000000E+00  0.000000000E+00 -7.167639430E+02  7.167639430E+02  0.000000000E+00  0.00000E+00  9.000E+00
      25     1     1     2     0     0  6.539465038E+00  1.746374339E+01 -5.751402911E+02  5.888627869E+02  1.250011218E+02  0.00000E+00  9.000E+00
       5     1     1     2   501     0  1.229378204E+00  4.612682418E-01 -6.603186941E+01  6.621551493E+01  4.750000000E+00  0.00000E+00  9.000E+00
      -5     1     1     2     0   503 -2.081371655E+00 -7.234283856E+00 -6.355219196E+01  6.417250637E+01  4.750000000E+00  0.00000E+00  9.000E+00
      21     1     1     2   503   511 -5.687471587E+00 -1.069072777E+01  2.898881353E+00  1.245160658E+01  4.786961795E-07  0.00000E+00  9.000E+00
#rwgt            1           9   2.0163066762081957E-002           4     1017287           0
</event>
<event>
      6   9999  3.45752E-01  1.44826E+01 -1.00000E+00  1.71703E-01
      21    -1     0     0   501   502  0.000000000E+00  0.000000000E+00  3.690154648E+01  3.690154648E+01  0.000000000E+00  0.00000E+00  9.000E+00
      21    -1     0     0   512   503  0.000000000E+00  0.000000000E+00 -1.858720913E+03  1.858720913E+03  0.000000000E+00  0.00000E+00  9.000E+00
      25     1     1     2     0     0 -3.151969365E+01 -1.087459951E+01 -4.200380007E+02  4.395096869E+02  1.250003795E+02  0.00000E+00  9.000E+00
       5     1     1     2   501     0 -7.260081119E-01 -2.193470865E+00  2.617479930E+01  2.670245346E+01  4.750000000E+00  0.00000E+00  9.000E+00
      -5     1     1     2     0   503  1.853222432E+01  1.772496936E+01 -2.484226806E+02  2.497879273E+02  4.750000000E+00  0.00000E+00  9.000E+00
      21     1     1     2   512   502  1.371347743E+01 -4.656898986E+00 -1.179533485E+03  1.179622392E+03  0.000000000E+00  0.00000E+00  9.000E+00
#rwgt            1           9   5.7181947504122456E-003           4     1019302           0
</event>
<event>
      6   9999 -3.45752E-01  7.76533E+00 -1.00000E+00  1.99559E-01
      21    -1     0     0   511   502  0.000000000E+00  0.000000000E+00  1.246916682E+01  1.246916682E+01  0.000000000E+00  0.00000E+00  9.000E+00
      21    -1     0     0   502   503  0.000000000E+00  0.000000000E+00 -8.262886854E+02  8.262886854E+02  0.000000000E+00  0.00000E+00  9.000E+00
      25     1     1     2     0     0 -8.927123018E+00  1.368703683E+01 -6.791071285E+02  6.907109596E+02  1.250124365E+02  0.00000E+00  9.000E+00
       5     1     1     2   501     0 -8.631097548E-01  7.397173891E-01  3.330530386E+00  5.911604936E+00  4.750000000E+00  0.00000E+00  9.000E+00
      -5     1     1     2     0   503  1.510350234E+01 -8.763764054E+00 -1.287923129E+02  1.300574554E+02  4.750000000E+00  0.00000E+00  9.000E+00
      21     1     1     2   511   501 -5.313269564E+00 -5.662990164E+00 -9.250607496E+00  1.207783218E+01  3.769728732E-07  0.00000E+00  9.000E+00
#rwgt            1           9  -5.2062983961012092E-005           4     1021789           0
</event>
<event>
      6   9999  3.45752E-01  2.02063E+01 -1.00000E+00  1.59871E-01
      21    -1     0     0   501   512  0.000000000E+00  0.000000000E+00  2.153026340E+01  2.153026340E+01  0.000000000E+00  0.00000E+00  9.000E+00
      21    -1     0     0   502   503  0.000000000E+00  0.000000000E+00 -9.101366084E+02  9.101366084E+02  0.000000000E+00  0.00000E+00  9.000E+00
      25     1     1     2     0     0 -2.369462722E+01  4.108411165E+00 -4.253298175E+02  4.439695852E+02  1.250008980E+02  0.00000E+00  9.000E+00
       5     1     1     2   501     0 -3.372044196E+00 -1.061867375E+00  8.178725810E+00  1.009714317E+01  4.750000000E+00  0.00000E+00  9.000E+00
      -5     1     1     2     0   503  9.239146275E+00  6.465176108E+00 -4.402752504E+02  4.404452508E+02  4.750000000E+00  0.00000E+00  9.000E+00
      21     1     1     2   502   512  1.782752514E+01 -9.511719899E+00 -3.118000298E+01  3.715489273E+01  6.743495762E-07  0.00000E+00  9.000E+00
#rwgt            1           9   1.4078038233141027E-003           4     1024808           0
</event>
<event>
      6   9999  3.45752E-01  1.21094E+01 -1.00000E+00  1.78843E-01
      21    -1     0     0   501   502  0.000000000E+00  0.000000000E+00  3.401038057E+01  3.401038057E+01  0.000000000E+00  0.00000E+00  9.000E+00
      21    -1     0     0   502   511  0.000000000E+00  0.000000000E+00 -1.347434355E+03  1.347434355E+03  0.000000000E+00  0.00000E+00  9.000E+00
      25     1     1     2     0     0  6.631864178E+01  1.281937061E+02 -7.295714450E+02  7.541444372E+02  1.250102006E+02  0.00000E+00  9.000E+00
       5     1     1     2   501     0 -2.207357581E+00  1.326310784E+00  1.110518895E+01  1.234986840E+01  4.750000000E+00  0.00000E+00  9.000E+00
      -5     1     1     2     0   503 -6.259734997E+01 -1.175055985E+02 -4.452516670E+02  4.647554231E+02  4.750000000E+00  0.00000E+00  9.000E+00
      21     1     1     2   503   511 -1.513934224E+00 -1.201441840E+01 -1.497060516E+02  1.501950070E+02  2.697398305E-06  0.00000E+00  9.000E+00
#rwgt            1           9   6.8473136117190591E-004           4     1026566           0
</event>
<event>
      6   9999  3.45752E-01  2.01813E+00 -1.00000E+00  3.31377E-01
       2    -1     0     0   501     0  0.000000000E+00  0.000000000E+00  5.684908675E+02  5.684908675E+02  0.000000000E+00  0.00000E+00  9.000E+00
      21    -1     0     0   502   503  0.000000000E+00  0.000000000E+00 -7.340731558E+02  7.340731558E+02  0.000000000E+00  0.00000E+00  9.000E+00
      25     1     1     2     0     0 -1.404936047E+01 -2.378051594E+01 -5.993386076E+02  6.128575938E+02  1.249990647E+02  0.00000E+00  9.000E+00
       5     1     1     2   501     0  2.445440351E-02  4.739938932E-02 -1.090776948E+01  1.189725934E+01  4.750000000E+00  0.00000E+00  9.000E+00
      -5     1     1     2     0   503  1.202599012E+01  2.345532479E+01 -1.150323009E+02  1.181091421E+02  4.750000000E+00  0.00000E+00  9.000E+00
       2     1     1     2   502     0  1.998915938E+00  2.777917562E-01  5.596963897E+02  5.597000282E+02  7.629394531E-06  0.00000E+00  9.000E+00
#rwgt            1           9   1.6181052505827146E-003           4     1029653           0
</event>
<event>
      6   9999  3.45752E-01  9.99245E+00 -1.00000E+00  1.87228E-01
      21    -1     0     0   501   502  0.000000000E+00  0.000000000E+00  6.361766527E+01  6.361766527E+01  0.000000000E+00  0.00000E+00  9.000E+00
      21    -1     0     0   511   503  0.000000000E+00  0.000000000E+00 -1.560699325E+03  1.560699325E+03  0.000000000E+00  0.00000E+00  9.000E+00
      25     1     1     2     0     0 -1.368543995E+02 -1.149950069E+01 -1.328637033E+02  2.283394537E+02  1.249991091E+02  0.00000E+00  9.000E+00
       5     1     1     2   501     0 -9.031366455E+00 -2.260682977E+01 -1.297625261E+00  2.483708242E+01  4.750000000E+00  0.00000E+00  9.000E+00
      -5     1     1     2     0   503  1.360968263E+02  3.209990929E+01 -1.268017695E+03  1.275713207E+03  4.750000000E+00  0.00000E+00  9.000E+00
      21     1     1     2   511   502  9.788939669E+00  2.006421158E+00 -9.490263606E+01  9.542724662E+01  0.000000000E+00  0.00000E+00  9.000E+00
#rwgt            1           9   1.5569016351412730E-002           4     1036841           0
</event>
<event>
      6   9999  3.45752E-01  9.44198E+00 -1.00000E+00  1.89859E-01
      21    -1     0     0   501   502  0.000000000E+00  0.000000000E+00  1.118735048E+01  1.118735048E+01  0.000000000E+00  0.00000E+00  9.000E+00
       1    -1     0     0   502     0  0.000000000E+00  0.000000000E+00 -1.727357935E+03  1.727357935E+03  0.000000000E+00  0.00000E+00  9.000E+00
      25     1     1     2     0     0  1.791041617E+01 -2.699624437E+00 -8.098566078E+02  8.196468437E+02  1.250006090E+02  0.00000E+00  9.000E+00
       5     1     1     2   501     0 -2.439573898E+00  7.542526626E-01  3.188708659E+00  6.265044357E+00  4.750000000E+00  0.00000E+00  9.000E+00
      -5     1     1     2     0   503 -2.278993588E+01 -4.019678501E+00 -8.916944570E+01  9.224582126E+01  4.750000000E+00  0.00000E+00  9.000E+00
       1     1     1     2   503     0  7.319093611E+00  5.965050275E+00 -8.203332400E+02  8.203875765E+02  2.412626389E-05  0.00000E+00  9.000E+00
#rwgt            1           9   3.9101636237096594E-005           4     1041581           0
</event>
<event>
      6   9999  3.45752E-01  1.92981E+01 -1.00000E+00  1.61404E-01
      21    -1     0     0   511   502  0.000000000E+00  0.000000000E+00  1.974715994E+02  1.974715994E+02  0.000000000E+00  0.00000E+00  9.000E+00
      21    -1     0     0   502   503  0.000000000E+00  0.000000000E+00 -9.390983296E+02  9.390983296E+02  0.000000000E+00  0.00000E+00  9.000E+00
      25     1     1     2     0     0 -2.582989282E+01 -2.551558215E+01 -7.239187181E+02  7.355281311E+02  1.250003717E+02  0.00000E+00  9.000E+00
       5     1     1     2   501     0 -3.104299329E+00 -1.362729259E+00  1.136923200E+01  1.277950084E+01  4.750000000E+00  0.00000E+00  9.000E+00
      -5     1     1     2     0   503  9.738453418E+00  2.489377542E+01 -2.072634818E+02  2.090340903E+02  4.750000000E+00  0.00000E+00  9.000E+00
      21     1     1     2   511   501  1.919573874E+01  1.984535981E+00  1.781862377E+02  1.792282067E+02  5.046370146E-06  0.00000E+00  9.000E+00
#rwgt            1           9   6.2455356083281576E-004           4     1044249           0
</event>
<event>
      6   9999  3.45752E-01  9.66863E+00 -1.00000E+00  1.88749E-01
      21    -1     0     0   501   512  0.000000000E+00  0.000000000E+00  2.937412222E+01  2.937412222E+01  0.000000000E+00  0.00000E+00  9.000E+00
      21    -1     0     0   502   503  0.000000000E+00  0.000000000E+00 -8.543325369E+02  8.543325369E+02  0.000000000E+00  0.00000E+00  9.000E+00
      25     1     1     2     0     0  8.080381560E+00 -2.938733296E+00 -4.053135044E+02  4.242376230E+02  1.249983805E+02  0.00000E+00  9.000E+00
       5     1     1     2   501     0 -4.005413739E-01 -2.995617507E-01  5.770027478E-01  4.810987716E+00  4.750000000E+00  0.00000E+00  9.000E+00
      -5     1     1     2     0   503 -2.898121319E+00 -5.165130011E+00 -4.360469964E+02  4.361130854E+02  4.750000000E+00  0.00000E+00  9.000E+00
      21     1     1     2   502   512 -4.781718868E+00  8.403425057E+00  1.582508344E+01  1.854496303E+01  1.168007728E-06  0.00000E+00  9.000E+00
#rwgt            1           9   13.083956091584383                4     1046065           0
</event>
<event>
      6   9999 -3.45752E-01  8.80362E+00 -1.00000E+00  1.93218E-01
      21    -1     0     0   511   502  0.000000000E+00  0.000000000E+00  8.274654389E+01  8.274654389E+01  0.000000000E+00  0.00000E+00  9.000E+00
      21    -1     0     0   502   503  0.000000000E+00  0.000000000E+00 -3.095951212E+03  3.095951212E+03  0.000000000E+00  0.00000E+00  9.000E+00
      25     1     1     2     0     0 -1.422262574E+01 -7.694123608E+00 -2.766497739E+03  2.769367471E+03  1.249998667E+02  0.00000E+00  9.000E+00
       5     1     1     2   501     0 -1.747767522E+00  4.463329961E-02 -9.065668496E+00  1.038294413E+01  4.750000000E+00  0.00000E+00  9.000E+00
      -5     1     1     2     0   503  9.698633392E+00  1.471410449E+00 -3.179604117E+02  3.181471585E+02  4.750000000E+00  0.00000E+00  9.000E+00
      21     1     1     2   511   501  6.271759869E+00  6.178079859E+00  8.031915044E+01  8.080018298E+01  3.438521648E-06  0.00000E+00  9.000E+00
#rwgt            1           9  -7.5025883226565847E-003           4     1048726           0
</event>
<event>
      6   9999  3.45752E-01  9.15798E+00 -1.00000E+00  1.91309E-01
      21    -1     0     0   502   512  0.000000000E+00  0.000000000E+00  3.489388114E+02  3.489388114E+02  0.000000000E+00  0.00000E+00  9.000E+00
      21    -1     0     0   501   502  0.000000000E+00  0.000000000E+00 -1.264747796E+03  1.264747796E+03  0.000000000E+00  0.00000E+00  9.000E+00
      25     1     1     2     0     0  8.333712315E+01 -1.744290258E+02 -4.625955902E+02  5.167085876E+02  1.249900929E+02  0.00000E+00  9.000E+00
       5     1     1     2   501     0 -7.761095778E+01  1.766302085E+02 -6.993457147E+02  7.254851359E+02  4.750000000E+00  0.00000E+00  9.000E+00
      -5     1     1     2     0   503  2.304468862E+00 -6.603178973E+00 -6.232693528E+01  6.289770990E+01  4.750000000E+00  0.00000E+00  9.000E+00
      21     1     1     2   503   512 -8.030634229E+00  4.401996245E+00  3.084592559E+02  3.085951736E+02  0.000000000E+00  0.00000E+00  9.000E+00
#rwgt            1           9   4.6385879816509587E-002           4     1051487           0
</event>
<event>
      6   9999  3.45752E-01  1.10920E+01 -1.00000E+00  1.82574E-01
      21    -1     0     0   501   511  0.000000000E+00  0.000000000E+00  2.535147386E+01  2.535147386E+01  0.000000000E+00  0.00000E+00  9.000E+00
      21    -1     0     0   502   503  0.000000000E+00  0.000000000E+00 -7.945451844E+02  7.945451844E+02  0.000000000E+00  0.00000E+00  9.000E+00
      25     1     1     2     0     0 -6.432778503E-01  3.069748257E+01 -5.928856196E+02  6.066973765E+02  1.250023976E+02  0.00000E+00  9.000E+00
       5     1     1     2   501     0  2.115104283E+00 -1.145211263E-01 -7.541819052E-01  5.255289865E+00  4.750000000E+00  0.00000E+00  9.000E+00
      -5     1     1     2     0   503  9.361115539E+00 -2.819966348E+01 -1.885054261E+02  1.908918795E+02  4.750000000E+00  0.00000E+00  9.000E+00
      21     1     1     2   502   511 -1.083294197E+01 -2.383297965E+00  1.295151711E+01  1.705211237E+01  1.390207266E-06  0.00000E+00  9.000E+00
#rwgt            1           9   2.5682585995115688E-003           4     1055518           0
</event>
<event>
      6   9999  3.45752E-01  5.43642E+00 -1.00000E+00  2.20204E-01
      21    -1     0     0   512   502  0.000000000E+00  0.000000000E+00  2.186132539E+02  2.186132539E+02  0.000000000E+00  0.00000E+00  9.000E+00
      21    -1     0     0   502   503  0.000000000E+00  0.000000000E+00 -8.175965924E+01  8.175965924E+01  0.000000000E+00  0.00000E+00  9.000E+00
      25     1     1     2     0     0  5.589586334E+00 -5.669578000E+01  2.741890752E+01  1.400789591E+02  1.249986534E+02  0.00000E+00  9.000E+00
       5     1     1     2   501     0  8.161204002E-01  5.372706102E-01  2.366113315E+01  2.415297982E+01  4.750000000E+00  0.00000E+00  9.000E+00
      -5     1     1     2     0   503 -2.471578866E+00  5.991048309E+01  1.097162333E+01  6.114175091E+01  4.750000000E+00  0.00000E+00  9.000E+00
      21     1     1     2   512   501 -3.934127867E+00 -3.751973696E+00  7.480193066E+01  7.499922332E+01  0.000000000E+00  0.00000E+00  9.000E+00
#rwgt            1           9  0.14388170054784230                4     1057590           0
</event>
<event>
      6   9999 -3.45752E-01  4.67853E+00 -1.00000E+00  2.34559E-01
      21    -1     0     0   511   502  0.000000000E+00  0.000000000E+00  1.037263186E+01  1.037263186E+01  0.000000000E+00  0.00000E+00  9.000E+00
      21    -1     0     0   502   503  0.000000000E+00  0.000000000E+00 -8.105357884E+02  8.105357884E+02  0.000000000E+00  0.00000E+00  9.000E+00
      25     1     1     2     0     0  9.614216521E+00  4.744466345E+00 -7.406015621E+02  7.511533692E+02  1.250030686E+02  0.00000E+00  9.000E+00
       5     1     1     2   501     0 -1.764912633E+00 -3.244274129E-01  2.239200746E+00  5.549476528E+00  4.750000000E+00  0.00000E+00  9.000E+00
      -5     1     1     2     0   503 -9.750229075E+00 -1.450999899E-01 -5.424325387E+01  5.531709602E+01  4.750000000E+00  0.00000E+00  9.000E+00
      21     1     1     2   511   501  1.900925186E+00 -4.274938942E+00 -7.557541347E+00  8.888478539E+00  2.230201594E-07  0.00000E+00  9.000E+00
#rwgt            1           9  -3.2830168651199550E-004           4     1061501           0
</event>
<event>
      6   9999  3.45752E-01  1.59308E+01 -1.00000E+00  1.68136E-01
      21    -1     0     0   501   502  0.000000000E+00  0.000000000E+00  1.016949257E+03  1.016949257E+03  0.000000000E+00  0.00000E+00  9.000E+00
      21    -1     0     0   502   512  0.000000000E+00  0.000000000E+00 -4.339180024E+01  4.339180024E+01  0.000000000E+00  0.00000E+00  9.000E+00
      25     1     1     2     0     0  6.402441867E-01 -1.298787901E+01  3.030874547E+02  3.280980400E+02  1.249688910E+02  0.00000E+00  9.000E+00
       5     1     1     2   501     0 -2.255241667E-01  6.760032692E+00  6.787834847E+02  6.788338019E+02  4.750000000E+00  0.00000E+00  9.000E+00
      -5     1     1     2     0   503 -1.185038954E+01  1.731909217E+01  1.423643195E+01  2.579963527E+01  4.750000000E+00  0.00000E+00  9.000E+00
      21     1     1     2   503   512  1.143566952E+01 -1.109124584E+01 -2.254991456E+01  2.760958019E+01  6.743495762E-07  0.00000E+00  9.000E+00
#rwgt            1           9   8.2014537950585040E-002           4     1065493           0
</event>
<event>
      6   9999  3.45752E-01  6.72411E+00 -1.00000E+00  2.07390E-01
      21    -1     0     0   501   511  0.000000000E+00  0.000000000E+00  1.270969399E+01  1.270969399E+01  0.000000000E+00  0.00000E+00  9.000E+00
      21    -1     0     0   502   503  0.000000000E+00  0.000000000E+00 -7.824977063E+02  7.824977063E+02  0.000000000E+00  0.00000E+00  9.000E+00
      25     1     1     2     0     0 -2.312755027E+01 -6.650837418E+00 -6.526465695E+02  6.649446320E+02  1.249988067E+02  0.00000E+00  9.000E+00
       5     1     1     2   501     0  2.555481453E+00 -6.452737580E+00 -4.151756078E+01  4.236081516E+01  4.750000000E+00  0.00000E+00  9.000E+00
      -5     1     1     2     0   503  2.692812514E+01  1.529771440E+01 -7.483784820E+01  8.113205293E+01  4.750000000E+00  0.00000E+00  9.000E+00
      21     1     1     2   502   511 -6.356056324E+00 -2.194139400E+00 -7.860338058E-01  6.769900209E+00  1.504943511E-07  0.00000E+00  9.000E+00
#rwgt            1           9  0.29741672459928342                4     1067645           0
</event>
<event>
      6   9999  3.45752E-01  1.41368E+01 -1.00000E+00  1.72633E-01
      21    -1     0     0   501   502  0.000000000E+00  0.000000000E+00  5.744066340E+01  5.744066340E+01  0.000000000E+00  0.00000E+00  9.000E+00
      21    -1     0     0   512   503  0.000000000E+00  0.000000000E+00 -1.565499045E+03  1.565499045E+03  0.000000000E+00  0.00000E+00  9.000E+00
      25     1     1     2     0     0 -4.482444513E+01 -5.505708403E+01 -1.479590402E+02  2.062940043E+02  1.249993010E+02  0.00000E+00  9.000E+00
       5     1     1     2   501     0 -7.210663245E+00 -4.321670037E+00  2.597710395E+01  2.771358739E+01  4.750000000E+00  0.00000E+00  9.000E+00
      -5     1     1     2     0   503  3.852302726E+01  6.353478504E+01 -1.210481149E+03  1.212768678E+03  4.750000000E+00  0.00000E+00  9.000E+00
      21     1     1     2   512   502  1.351208112E+01 -4.156030973E+00 -1.755952968E+02  1.761634389E+02  1.907348633E-06  0.00000E+00  9.000E+00
#rwgt            1           9   3.0718036435016668E-004           4     1070675           0
</event>
<event>
      6   9999  3.45752E-01  1.75636E+01 -1.00000E+00  1.64639E-01
      -1    -1     0     0     0   502  0.000000000E+00  0.000000000E+00  1.181889795E+03  1.181889795E+03  0.000000000E+00  0.00000E+00  9.000E+00
      21    -1     0     0   502   503  0.000000000E+00  0.000000000E+00 -1.414979866E+02  1.414979866E+02  0.000000000E+00  0.00000E+00  9.000E+00
      25     1     1     2     0     0 -2.016507398E+00  1.544226892E-01 -1.027645394E+02  1.618315726E+02  1.249992687E+02  0.00000E+00  9.000E+00
       5     1     1     2   501     0 -1.653115872E+01 -5.293324320E+00  2.635608612E+02  2.641745418E+02  4.750000000E+00  0.00000E+00  9.000E+00
      -5     1     1     2     0   503  2.273160000E+00 -1.465693717E+00 -7.957999334E+00  9.654417012E+00  4.750000000E+00  0.00000E+00  9.000E+00
      -1     1     1     2     0   501  1.627450611E+01  6.604595348E+00  8.875534859E+02  8.877272501E+02  1.868812365E-05  0.00000E+00  9.000E+00
#rwgt            1           9   2.0301709118804929                4     1073822           0
</event>
<event>
      6   9999  3.45752E-01  6.78294E+00 -1.00000E+00  2.06898E-01
      21    -1     0     0   511   502  0.000000000E+00  0.000000000E+00  9.712750062E+01  9.712750062E+01  0.000000000E+00  0.00000E+00  9.000E+00
      21    -1     0     0   502   503  0.000000000E+00  0.000000000E+00 -3.513811012E+02  3.513811012E+02  0.000000000E+00  0.00000E+00  9.000E+00
      25     1     1     2     0     0  3.787803364E+01 -2.692716823E+01 -2.820084698E+02  3.119519108E+02  1.250015993E+02  0.00000E+00  9.000E+00
       5     1     1     2   501     0  2.633780124E+00  9.737315688E-01  4.619158418E+01  4.651999463E+01  4.750000000E+00  0.00000E+00  9.000E+00
      -5     1     1     2     0   503 -3.373001623E+01  2.607766795E+01 -4.526526665E+01  6.236397698E+01  4.750000000E+00  0.00000E+00  9.000E+00
      21     1     1     2   511   501 -6.781797536E+00 -1.242312896E-01  2.682855168E+01  2.767271935E+01  3.371747881E-07  0.00000E+00  9.000E+00
#rwgt            1           9  0.13148310344628095                4     1076126           0
</event>
<event>
      6   9999  3.45752E-01  9.23051E+00 -1.00000E+00  1.90933E-01
      21    -1     0     0   501   512  0.000000000E+00  0.000000000E+00  1.799599858E+02  1.799599858E+02  0.000000000E+00  0.00000E+00  9.000E+00
      21    -1     0     0   502   503  0.000000000E+00  0.000000000E+00 -7.535714099E+02  7.535714099E+02  0.000000000E+00  0.00000E+00  9.000E+00
      25     1     1     2     0     0 -1.055195407E+00  1.091701879E-01 -6.296075304E+02  6.418983413E+02  1.250068517E+02  0.00000E+00  9.000E+00
       5     1     1     2   501     0 -3.549144649E+00  3.909917384E+00 -5.313739034E+01  5.360996767E+01  4.750000000E+00  0.00000E+00  9.000E+00
      -5     1     1     2     0   503 -5.731148367E-01  3.622653434E+00 -6.418200385E+01  6.446195930E+01  4.750000000E+00  0.00000E+00  9.000E+00
      21     1     1     2   502   512  5.177454892E+00 -7.641741006E+00  1.733155004E+02  1.735611274E+02  3.814697266E-06  0.00000E+00  9.000E+00
#rwgt            1           9   2.8185405422167858E-003           4     1080431           0
</event>
<event>
      6   9999  3.45752E-01  1.52795E+01 -1.00000E+00  1.69680E-01
      21    -1     0     0   501   511  0.000000000E+00  0.000000000E+00  1.975216386E+02  1.975216386E+02  0.000000000E+00  0.00000E+00  9.000E+00
      21    -1     0     0   502   503  0.000000000E+00  0.000000000E+00 -1.443914186E+03  1.443914186E+03  0.000000000E+00  0.00000E+00  9.000E+00
      25     1     1     2     0     0  1.025150101E+02 -1.068428606E+02 -1.150110701E+03  1.166320113E+03  1.249930315E+02  0.00000E+00  9.000E+00
       5     1     1     2   501     0 -1.044153321E+01 -6.123062561E-01  3.385295289E+01  3.574892242E+01  4.750000000E+00  0.00000E+00  9.000E+00
      -5     1     1     2     0   503 -1.067996238E+02  1.115298810E+02 -2.633269826E+02  3.053010585E+02  4.750000000E+00  0.00000E+00  9.000E+00
      21     1     1     2   502   511  1.472614691E+01 -4.074714203E+00  1.331921828E+02  1.340657311E+02  5.046370146E-06  0.00000E+00  9.000E+00
#rwgt            1           9   1.9266519136155178E-004           4     1082511           0
</event>
<event>
      6   9999  3.45752E-01  4.74062E+00 -1.00000E+00  2.33508E-01
      21    -1     0     0   501   502  0.000000000E+00  0.000000000E+00  1.193910020E+00  1.193910020E+00  0.000000000E+00  0.00000E+00  9.000E+00
      21    -1     0     0   512   503  0.000000000E+00  0.000000000E+00 -5.166180973E+03  5.166180973E+03  0.000000000E+00  0.00000E+00  9.000E+00
      25     1     1     2     0     0 -2.749466934E+00  2.887926139E+00 -4.338092857E+03  4.339895236E+03  1.250004937E+02  0.00000E+00  9.000E+00
       5     1     1     2   501     0  3.451015361E+00 -1.111728077E+01 -1.778564763E+02  1.783002863E+02  4.750000000E+00  0.00000E+00  9.000E+00
      -5     1     1     2     0   503  3.478935237E+00  5.993953236E+00 -4.863775142E+02  4.864500790E+02  4.750000000E+00  0.00000E+00  9.000E+00
      21     1     1     2   512   502 -4.180483664E+00  2.235401394E+00 -1.626602160E+02  1.627292823E+02  2.697398305E-06  0.00000E+00  9.000E+00
#rwgt            1           9   2.6980879146494554                4     1086104           0
</event>
<event>
      6   9999  3.45752E-01  3.22085E+00 -1.00000E+00  2.69085E-01
      21    -1     0     0   501   502  0.000000000E+00  0.000000000E+00  1.784216703E+03  1.784216703E+03  0.000000000E+00  0.00000E+00  9.000E+00
      21    -1     0     0   511   503  0.000000000E+00  0.000000000E+00 -2.809560302E+00  2.809560302E+00  0.000000000E+00  0.00000E+00  9.000E+00
      25     1     1     2     0     0  2.011779605E+00 -2.517743927E+00  1.566255505E+03  1.571238983E+03  1.250009938E+02  0.00000E+00  9.000E+00
       5     1     1     2   501     0 -8.036828869E-03  1.088914995E-01  1.339140586E+02  1.339983191E+02  4.750000000E+00  0.00000E+00  9.000E+00
      -5     1     1     2     0   503  1.159156701E+00  1.800645291E+00  6.648615917E+01  6.669001296E+01  4.750000000E+00  0.00000E+00  9.000E+00
      21     1     1     2   511   502 -3.162899477E+00  6.082071365E-01  1.475141961E+01  1.509894797E+01  2.384185791E-07  0.00000E+00  9.000E+00
#rwgt            1           9   7.2505278546272699E-004           4     1089528           0
</event>
<event>
      6   9999  3.45752E-01  2.66733E+01 -1.00000E+00  1.51217E-01
      21    -1     0     0   501   502  0.000000000E+00  0.000000000E+00  3.119068401E+01  3.119068401E+01  0.000000000E+00  0.00000E+00  9.000E+00
      21    -1     0     0   512   503  0.000000000E+00  0.000000000E+00 -1.198029090E+03  1.198029090E+03  0.000000000E+00  0.00000E+00  9.000E+00
      25     1     1     2     0     0 -2.549145678E+01 -1.326280249E+02 -7.316859018E+02  7.544728291E+02  1.249999343E+02  0.00000E+00  9.000E+00
       5     1     1     2   501     0 -8.938294348E-01 -4.062141771E+00  7.931063618E+00  1.013726773E+01  4.750000000E+00  0.00000E+00  9.000E+00
      -5     1     1     2     0   503  2.080751303E+01  1.106065745E+02 -3.424695321E+02  3.605200547E+02  4.750000000E+00  0.00000E+00  9.000E+00
      21     1     1     2   512   502  5.577773181E+00  2.608359215E+01 -1.006140360E+02  1.040896228E+02  1.907348633E-06  0.00000E+00  9.000E+00
#rwgt            1           9   8.3270675717913548E-004           4     1094442           0
</event>
<event>
      6   9999  3.45752E-01  1.09818E+01 -1.00000E+00  1.83009E-01
      21    -1     0     0   501   502  0.000000000E+00  0.000000000E+00  1.728711547E+01  1.728711547E+01  0.000000000E+00  0.00000E+00  9.000E+00
      21    -1     0     0   502   511  0.000000000E+00  0.000000000E+00 -1.043269701E+03  1.043269701E+03  0.000000000E+00  0.00000E+00  9.000E+00
      25     1     1     2     0     0 -1.306426621E+00 -5.009565528E+00 -9.125466129E+02  9.210827023E+02  1.250008849E+02  0.00000E+00  9.000E+00
       5     1     1     2   501     0 -2.069776768E+00 -1.150572452E+00  1.157057615E+01  1.272982817E+01  4.750000000E+00  0.00000E+00  9.000E+00
      -5     1     1     2     0   503  1.819268795E+00 -4.710718514E+00 -2.004939450E+01  2.121417752E+01  4.750000000E+00  0.00000E+00  9.000E+00
      21     1     1     2   503   511  1.556934594E+00  1.087085649E+01 -1.049571546E+02  1.055301088E+02  1.348699152E-06  0.00000E+00  9.000E+00
#rwgt            1           9   1.3214486971996643E-004           4     1096962           0
</event>
<event>
      6   9999  3.45752E-01  3.99871E+00 -1.00000E+00  2.47879E-01
      21    -1     0     0   501   502  0.000000000E+00  0.000000000E+00  1.794053559E+02  1.794053559E+02  0.000000000E+00  0.00000E+00  9.000E+00
      21    -1     0     0   512   503  0.000000000E+00  0.000000000E+00 -3.742901320E+01  3.742901320E+01  0.000000000E+00  0.00000E+00  9.000E+00
      25     1     1     2     0     0 -1.129497813E+00 -3.624022116E+00  8.499251013E+01  1.512056505E+02  1.250000506E+02  0.00000E+00  9.000E+00
       5     1     1     2   501     0 -8.628400495E-01  4.013183147E-01  5.522450197E+01  5.543657337E+01  4.750000000E+00  0.00000E+00  9.000E+00
      -5     1     1     2     0   503  1.150547979E+00 -6.863981337E-01  3.266975327E+00  5.918659547E+00  4.750000000E+00  0.00000E+00  9.000E+00
      21     1     1     2   512   502  8.417898838E-01  3.909101935E+00 -1.507644678E+00  4.273485770E+00  6.664001875E-08  0.00000E+00  9.000E+00
#rwgt            1           9   2.6524749858550271E-003           4     1099797           0
</event>
<event>
      6   9999  3.45752E-01  1.84977E+01 -1.00000E+00  1.62843E-01
      21    -1     0     0   501   502  0.000000000E+00  0.000000000E+00  5.039778621E+00  5.039778621E+00  0.000000000E+00  0.00000E+00  9.000E+00
      21    -1     0     0   502   511  0.000000000E+00  0.000000000E+00 -1.848386094E+03  1.848386094E+03  0.000000000E+00  0.00000E+00  9.000E+00
      25     1     1     2     0     0 -1.747984624E+01  8.697298615E+00 -1.123541828E+03  1.130642152E+03  1.249969935E+02  0.00000E+00  9.000E+00
       5     1     1     2   501     0 -1.310015733E+00  6.630225251E-01 -6.292269749E+00  8.019407627E+00  4.750000000E+00  0.00000E+00  9.000E+00
      -5     1     1     2     0   503  1.702439709E+00 -2.276197263E+00 -1.470598421E+01  1.571330158E+01  4.750000000E+00  0.00000E+00  9.000E+00
      21     1     1     2   503   511  1.708742227E+01 -7.084123878E+00 -6.988062333E+02  6.990510113E+02  1.078959322E-05  0.00000E+00  9.000E+00
#rwgt            1           9  0.42044977504943171                4     1104458           0
</event>
<event>
      6   9999  3.45752E-01  2.46055E+01 -1.00000E+00  1.53631E-01
      21    -1     0     0   501   512  0.000000000E+00  0.000000000E+00  8.291611672E+02  8.291611672E+02  0.000000000E+00  0.00000E+00  9.000E+00
      21    -1     0     0   502   503  0.000000000E+00  0.000000000E+00 -1.058204303E+03  1.058204303E+03  0.000000000E+00  0.00000E+00  9.000E+00
      25     1     1     2     0     0  1.759934204E+01 -8.398064783E+00 -5.853159376E+02  5.988376561E+02  1.250261059E+02  0.00000E+00  9.000E+00
       5     1     1     2   501     0  1.116516787E+01  9.620208921E+00  1.440238075E+01  2.114711480E+01  4.750000000E+00  0.00000E+00  9.000E+00
      -5     1     1     2     0   503 -7.811296786E+00  1.167723287E+01 -4.624481348E+02  4.626858696E+02  4.750000000E+00  0.00000E+00  9.000E+00
      21     1     1     2   502   512 -2.095321312E+01 -1.289937701E+01  8.043185554E+02  8.046948301E+02  1.078959322E-05  0.00000E+00  9.000E+00
#rwgt            1           9   2.1545579359714118E-004           4     1105728           0
</event>
<event>
      6   9999  3.45752E-01  1.50554E+01 -1.00000E+00  1.70233E-01
      21    -1     0     0   511   502  0.000000000E+00  0.000000000E+00  2.066222965E+01  2.066222965E+01  0.000000000E+00  0.00000E+00  9.000E+00
      21    -1     0     0   502   503  0.000000000E+00  0.000000000E+00 -9.744575282E+02  9.744575282E+02  0.000000000E+00  0.00000E+00  9.000E+00
      25     1     1     2     0     0 -4.140795225E+01 -6.477475244E+01 -5.725370618E+02  5.910328390E+02  1.249429575E+02  0.00000E+00  9.000E+00
       5     1     1     2   501     0 -1.271566039E+00 -3.962066648E-01  4.857562368E+00  6.923313663E+00  4.750000000E+00  0.00000E+00  9.000E+00
      -5     1     1     2     0   503  4.018252366E+01  5.032411199E+01 -3.679350399E+02  3.735584393E+02  4.750000000E+00  0.00000E+00  9.000E+00
      21     1     1     2   511   501  2.496994629E+00  1.484684711E+01 -1.818075923E+01  2.360516591E+01  5.331201500E-07  0.00000E+00  9.000E+00
#rwgt            1           9   4.6870520038992178E-006           4     1107440           0
</event>
<event>
      6   9999  3.45752E-01  6.37562E+00 -1.00000E+00  2.10449E-01
      21    -1     0     0   501   502  0.000000000E+00  0.000000000E+00  2.332438076E+03  2.332438076E+03  0.000000000E+00  0.00000E+00  9.000E+00
      21    -1     0     0   502   512  0.000000000E+00  0.000000000E+00 -3.389829616E+00  3.389829616E+00  0.000000000E+00  0.00000E+00  9.000E+00
      25     1     1     2     0     0  1.374997142E+00  5.150856383E+00  1.275528002E+03  1.281649164E+03  1.249978926E+02  0.00000E+00  9.000E+00
       5     1     1     2   501     0 -3.715686430E-02  2.378753806E+00  9.500085062E+02  9.500233598E+02  4.750000000E+00  0.00000E+00  9.000E+00
      -5     1     1     2     0   503  2.070437817E-01 -1.343990427E+00  5.604769258E+01  5.626504706E+01  4.750000000E+00  0.00000E+00  9.000E+00
      21     1     1     2   503   512 -1.544884059E+00 -6.185619762E+00  4.746404607E+01  4.789033543E+01  6.743495762E-07  0.00000E+00  9.000E+00
#rwgt            1           9   1.4886564172111658E-002           4     1109530           0
</event>
<event>
      6   9999  3.45752E-01  4.89778E+01 -1.00000E+00  1.35269E-01
      21    -1     0     0   501   511  0.000000000E+00  0.000000000E+00  6.797647590E+01  6.797647590E+01  0.000000000E+00  0.00000E+00  9.000E+00
      21    -1     0     0   502   503  0.000000000E+00  0.000000000E+00 -2.136243592E+03  2.136243592E+03  0.000000000E+00  0.00000E+00  9.000E+00
      25     1     1     2     0     0  9.650289465E+01  2.607279040E+02 -1.668586184E+03  1.696200756E+03  1.250012182E+02  0.00000E+00  9.000E+00
       5     1     1     2   501     0 -6.008601891E-01  1.600737877E+00  1.054423548E+01  1.169045750E+01  4.750000000E+00  0.00000E+00  9.000E+00
      -5     1     1     2     0   503 -8.052573139E+01 -2.158270409E+02 -3.377523562E+02  4.088580702E+02  4.750000000E+00  0.00000E+00  9.000E+00
      21     1     1     2   502   511 -1.537630307E+01 -4.650160092E+01 -7.247281144E+01  8.747078359E+01  9.536743164E-07  0.00000E+00  9.000E+00
#rwgt            1           9   4.9935168112332808E-004           4     1112746           0
</event>
<event>
      6   9999  3.45752E-01  1.13240E+01 -1.00000E+00  1.81679E-01
      21    -1     0     0   512   502  0.000000000E+00  0.000000000E+00  1.151340862E+01  1.151340862E+01  0.000000000E+00  0.00000E+00  9.000E+00
      21    -1     0     0   502   503  0.000000000E+00  0.000000000E+00 -7.837263417E+02  7.837263417E+02  0.000000000E+00  0.00000E+00  9.000E+00
      25     1     1     2     0     0 -7.418474551E+00  2.971298635E+01 -5.982245520E+02  6.119118635E+02  1.250024751E+02  0.00000E+00  9.000E+00
       5     1     1     2   501     0  6.017349704E+00 -1.289333705E+01 -2.864089217E+01  3.233125179E+01  4.750000000E+00  0.00000E+00  9.000E+00
      -5     1     1     2     0   503 -9.620215019E+00 -1.421888152E+01 -1.332146349E+02  1.344002477E+02  4.750000000E+00  0.00000E+00  9.000E+00
      21     1     1     2   512   501  1.102133987E+01 -2.600767773E+00 -1.213285403E+01  1.659638733E+01  4.129530925E-07  0.00000E+00  9.000E+00
#rwgt            1           9   7.1199387809072659E-002           4     1114917           0
</event>
<event>
      6   9999 -3.45752E-01  4.64747E+00 -1.00000E+00  2.35093E-01
      21    -1     0     0   501   502  0.000000000E+00  0.000000000E+00  8.103013001E+01  8.103013001E+01  0.000000000E+00  0.00000E+00  9.000E+00
      21    -1     0     0   502   511  0.000000000E+00  0.000000000E+00 -1.771550954E+02  1.771550954E+02  0.000000000E+00  0.00000E+00  9.000E+00
      25     1     1     2     0     0 -1.529071452E+00 -2.249472844E+00 -7.931860906E+01  1.480669850E+02  1.249999685E+02  0.00000E+00  9.000E+00
       5     1     1     2   501     0 -1.825130253E+00  3.309919746E+00  4.444962326E+01  4.486221324E+01  4.750000000E+00  0.00000E+00  9.000E+00
      -5     1     1     2     0   503 -5.915774812E-01  1.395126999E+00 -1.343690715E+00  5.163753286E+00  4.750000000E+00  0.00000E+00  9.000E+00
      21     1     1     2   503   511  3.945779187E+00 -2.455573901E+00 -5.991228887E+01  6.009227383E+01  6.743495762E-07  0.00000E+00  9.000E+00
#rwgt            1           9  -5.5679930285520950E-002           4     1116861           0
</event>
<event>
      6   9999  3.45752E-01  1.02768E+01 -1.00000E+00  1.85953E-01
      21    -1     0     0   501   502  0.000000000E+00  0.000000000E+00  1.024082996E+01  1.024082996E+01  0.000000000E+00  0.00000E+00  9.000E+00
       1    -1     0     0   502     0  0.000000000E+00  0.000000000E+00 -1.656756389E+03  1.656756389E+03  0.000000000E+00  0.00000E+00  9.000E+00
      25     1     1     2     0     0 -1.473307482E+01  2.694122370E+01 -6.021097629E+02  6.157147500E+02  1.250023750E+02  0.00000E+00  9.000E+00
       5     1     1     2   501     0 -7.468588115E-02 -9.798128847E-01 -3.386909595E+00  5.916017907E+00  4.750000000E+00  0.00000E+00  9.000E+00
      -5     1     1     2     0   503  1.421694072E+01 -3.622126104E+01 -1.771037825E+02  1.813902242E+02  4.750000000E+00  0.00000E+00  9.000E+00
       1     1     1     2   503     0  5.908199849E-01  1.025985022E+01 -8.639151040E+02  8.639762269E+02  1.868812365E-05  0.00000E+00  9.000E+00
#rwgt            1           9   1.0728139405229090E-004           4     1121001           0
</event>
<event>
      6   9999 -3.45752E-01  5.46089E+00 -1.00000E+00  2.19916E-01
      21    -1     0     0   501   511  0.000000000E+00  0.000000000E+00  4.143820355E+01  4.143820355E+01  0.000000000E+00  0.00000E+00  9.000E+00
      21    -1     0     0   502   503  0.000000000E+00  0.000000000E+00 -8.628559481E+02  8.628559481E+02  0.000000000E+00  0.00000E+00  9.000E+00
      25     1     1     2     0     0 -7.945434428E+00 -3.862509957E+00 -8.381412543E+02  8.474569374E+02  1.249977984E+02  0.00000E+00  9.000E+00
       5     1     1     2   501     0  4.790117816E-01  3.486023285E+00  5.774779466E+00  8.263920892E+00  4.750000000E+00  0.00000E+00  9.000E+00
      -5     1     1     2     0   503  3.140658864E+00  3.709517371E+00 -1.793417794E+01  1.917867294E+01  4.750000000E+00  0.00000E+00  9.000E+00
      21     1     1     2   502   511  4.325763783E+00 -3.333030699E+00  2.888290821E+01  2.939462048E+01  0.000000000E+00  0.00000E+00  9.000E+00
#rwgt            1           9  -4.0114874030944374E-003           4     1123058           0
</event>
<event>
      6   9999  3.45752E-01  6.14377E+00 -1.00000E+00  2.12635E-01
      21    -1     0     0   501   502  0.000000000E+00  0.000000000E+00  1.702179559E+02  1.702179559E+02  0.000000000E+00  0.00000E+00  9.000E+00
      21    -1     0     0   512   503  0.000000000E+00  0.000000000E+00 -9.513394504E+01  9.513394504E+01  0.000000000E+00  0.00000E+00  9.000E+00
      25     1     1     2     0     0  2.556984259E+01 -2.415231929E+01 -1.234865159E+01  1.304817003E+02  1.250433266E+02  0.00000E+00  9.000E+00
       5     1     1     2   501     0 -9.625522506E-01 -2.267693364E-01  3.814491976E+01  3.845224746E+01  4.750000000E+00  0.00000E+00  9.000E+00
      -5     1     1     2     0   503 -3.049101991E+01  2.261057455E+01  6.728546178E+01  7.740049253E+01  4.750000000E+00  0.00000E+00  9.000E+00
      21     1     1     2   512   502  5.883729565E+00  1.768514083E+00 -1.799771913E+01  1.901746065E+01  0.000000000E+00  0.00000E+00  9.000E+00
#rwgt            1           9   3.8940798597955493E-004           4     1126685           0
</event>
<event>
      6   9999 -3.45752E-01  4.43094E+00 -1.00000E+00  2.38998E-01
      21    -1     0     0   501   502  0.000000000E+00  0.000000000E+00  6.677194991E+02  6.677194991E+02  0.000000000E+00  0.00000E+00  9.000E+00
      21    -1     0     0   511   503  0.000000000E+00  0.000000000E+00 -1.115076436E+02  1.115076436E+02  0.000000000E+00  0.00000E+00  9.000E+00
      25     1     1     2     0     0  8.770758182E+00  2.022313879E+00  9.305525552E+01  1.560822391E+02  1.249854745E+02  0.00000E+00  9.000E+00
       5     1     1     2   501     0 -5.517355207E+00  2.035617788E+00  4.592783304E+02  4.593405406E+02  4.750000000E+00  0.00000E+00  9.000E+00
      -5     1     1     2     0   503 -1.869207018E+00  1.512553003E-01  8.370205331E+01  8.385769518E+01  4.750000000E+00  0.00000E+00  9.000E+00
      21     1     1     2   511   502 -1.384195957E+00 -4.209186968E+00 -7.982378368E+01  7.994666782E+01  1.348699152E-06  0.00000E+00  9.000E+00
#rwgt            1           9  -19.359525325320998                4     1131035           0
</event>
<event>
      6   9999  3.45752E-01  3.01158E+01 -1.00000E+00  1.47730E-01
      21    -1     0     0   501   502  0.000000000E+00  0.000000000E+00  4.036880720E+02  4.036880720E+02  0.000000000E+00  0.00000E+00  9.000E+00
      21    -1     0     0   512   503  0.000000000E+00  0.000000000E+00 -1.443582019E+02  1.443582019E+02  0.000000000E+00  0.00000E+00  9.000E+00
      25     1     1     2     0     0  1.195224316E+02  1.047245272E+02  1.505356285E+02  2.520706448E+02  1.250031850E+02  0.00000E+00  9.000E+00
       5     1     1     2   501     0  1.022253121E+00 -7.624206913E-01  1.197648378E+02  1.198657798E+02  4.750000000E+00  0.00000E+00  9.000E+00
      -5     1     1     2     0   503 -9.092529107E+01 -1.094078013E+02 -2.202004765E+01  1.440309708E+02  4.750000000E+00  0.00000E+00  9.000E+00
      21     1     1     2   512   502 -2.961939364E+01  5.445694843E+00  1.104945136E+01  3.207887852E+01  4.915124924E-07  0.00000E+00  9.000E+00
#rwgt            1           9  0.28111392379849393                4     1136461           0
</event>
<event>
      6   9999  3.45752E-01  2.12996E+00 -1.00000E+00  3.22655E-01
      21    -1     0     0   501   502  0.000000000E+00  0.000000000E+00  4.710918166E+00  4.710918166E+00  0.000000000E+00  0.00000E+00  9.000E+00
      21    -1     0     0   502   511  0.000000000E+00  0.000000000E+00 -4.149837745E+03  4.149837745E+03  0.000000000E+00  0.00000E+00  9.000E+00
      25     1     1     2     0     0  4.789179592E+00  4.878814520E+00 -2.620354907E+03  2.623342534E+03  1.249778940E+02  0.00000E+00  9.000E+00
       5     1     1     2   501     0  4.872931933E-01 -1.998766515E+00  8.441361121E-01  5.244767680E+00  4.750000000E+00  0.00000E+00  9.000E+00
      -5     1     1     2     0   503 -3.938251704E+00 -1.222974105E+00 -5.737982322E+01  5.772358361E+01  4.750000000E+00  0.00000E+00  9.000E+00
      21     1     1     2   503   511 -1.338221081E+00 -1.657073900E+00 -1.468236233E+03  1.468237778E+03  0.000000000E+00  0.00000E+00  9.000E+00
#rwgt            1           9   8.2747412441552454E-005           4     1138239           0
</event>
<event>
      6   9999  3.45752E-01  1.15142E+01 -1.00000E+00  1.80966E-01
      21    -1     0     0   501   502  0.000000000E+00  0.000000000E+00  2.358845315E+01  2.358845315E+01  0.000000000E+00  0.00000E+00  9.000E+00
       2    -1     0     0   502     0  0.000000000E+00  0.000000000E+00 -4.730314219E+02  4.730314219E+02  0.000000000E+00  0.00000E+00  9.000E+00
      25     1     1     2     0     0  1.702486424E+01  2.294235321E+00 -3.251089676E+02  3.487340099E+02  1.249978374E+02  0.00000E+00  9.000E+00
       5     1     1     2   501     0  2.511598024E+00  2.102367406E+00  7.989402694E+00  9.855005264E+00  4.750000000E+00  0.00000E+00  9.000E+00
      -5     1     1     2     0   503 -1.032000884E+01  2.505070512E+00 -1.052088855E+01  1.568532935E+01  4.750000000E+00  0.00000E+00  9.000E+00
       2     1     1     2   503     0 -9.216453419E+00 -6.901673239E+00 -1.218025152E+02  1.223455305E+02  1.907348633E-06  0.00000E+00  9.000E+00
#rwgt            1           9   9.6693789504219438                4     1145776           0
</event>
<event>
      6   9999 -3.45752E-01  5.26272E+00 -1.00000E+00  2.22309E-01
      21    -1     0     0   511   502  0.000000000E+00  0.000000000E+00  9.271878153E+00  9.271878153E+00  0.000000000E+00  0.00000E+00  9.000E+00
      21    -1     0     0   502   503  0.000000000E+00  0.000000000E+00 -3.689815311E+03  3.689815311E+03  0.000000000E+00  0.00000E+00  9.000E+00
      25     1     1     2     0     0  3.109472249E+01  2.064663200E+01 -2.950521822E+03  2.953403873E+03  1.249889915E+02  0.00000E+00  9.000E+00
       5     1     1     2   501     0 -2.094827794E-02  9.770750054E-03  5.048829555E+00  6.932078633E+00  4.750000000E+00  0.00000E+00  9.000E+00
      -5     1     1     2     0   503 -2.679344817E+01 -2.371827291E+01 -7.315035562E+02  7.323936513E+02  4.750000000E+00  0.00000E+00  9.000E+00
      21     1     1     2   511   501 -4.280326040E+00  3.061870156E+00 -3.566883715E+00  6.357585965E+00  3.551356580E-07  0.00000E+00  9.000E+00
#rwgt            1           9  -2.5130830300359760E-003           4     1147951           0
</event>
<event>
      6   9999  3.45752E-01  5.75761E+00 -1.00000E+00  2.16583E-01
      21    -1     0     0   501   502  0.000000000E+00  0.000000000E+00  1.006415326E+01  1.006415326E+01  0.000000000E+00  0.00000E+00  9.000E+00
      21    -1     0     0   512   503  0.000000000E+00  0.000000000E+00 -1.229536684E+03  1.229536684E+03  0.000000000E+00  0.00000E+00  9.000E+00
      25     1     1     2     0     0  1.591481780E+01  1.322402074E+01 -5.919646577E+02  6.053723502E+02  1.250014812E+02  0.00000E+00  9.000E+00
       5     1     1     2   501     0 -4.626681867E-01  2.322760722E-01  9.392822546E-01  4.869575462E+00  4.750000000E+00  0.00000E+00  9.000E+00
      -5     1     1     2     0   503 -1.014291946E+01 -1.568388476E+01 -2.125610035E+02  2.134329069E+02  4.750000000E+00  0.00000E+00  9.000E+00
      21     1     1     2   512   502 -5.309230155E+00  2.227587951E+00 -4.158861523E+02  4.159260052E+02  5.394796609E-06  0.00000E+00  9.000E+00
#rwgt            1           9   9.0317469296506410E-005           4     1152843           0
</event>
<event>
      6   9999 -3.45752E-01  5.17709E+00 -1.00000E+00  2.23389E-01
      21    -1     0     0   501   502  0.000000000E+00  0.000000000E+00  1.806727043E+01  1.806727043E+01  0.000000000E+00  0.00000E+00  9.000E+00
      21    -1     0     0   502   511  0.000000000E+00  0.000000000E+00 -7.437299414E+02  7.437299414E+02  0.000000000E+00  0.00000E+00  9.000E+00
      25     1     1     2     0     0 -3.951972958E+00 -1.144261851E+01 -6.405473009E+02  6.527422857E+02  1.250003810E+02  0.00000E+00  9.000E+00
       5     1     1     2   501     0  2.943749113E+00 -1.001978755E+00  9.504980219E+00  1.107143935E+01  4.750000000E+00  0.00000E+00  9.000E+00
      -5     1     1     2     0   503  4.562596834E+00  8.680470136E+00 -1.701062460E+01  2.020127969E+01  4.750000000E+00  0.00000E+00  9.000E+00
      21     1     1     2   503   511 -3.554372988E+00  3.764127125E+00 -7.760972568E+01  7.778220710E+01  9.536743164E-07  0.00000E+00  9.000E+00
#rwgt            1           9  -6.1710665339898137E-004           4     1156547           0
</event>
<event>
      6   9999  3.45752E-01  6.90000E+00 -1.00000E+00  2.05938E-01
      21    -1     0     0   501   512  0.000000000E+00  0.000000000E+00  1.002804077E+03  1.002804077E+03  0.000000000E+00  0.00000E+00  9.000E+00
      21    -1     0     0   502   503  0.000000000E+00  0.000000000E+00 -1.038141523E+03  1.038141523E+03  0.000000000E+00  0.00000E+00  9.000E+00
      25     1     1     2     0     0 -2.215985661E+01 -3.092037479E+01 -2.983399801E+02  3.256951803E+02  1.249939117E+02  0.00000E+00  9.000E+00
       5     1     1     2   501     0  3.403140017E+00 -2.217817434E+00  8.109601593E+00  1.023856504E+01  4.750000000E+00  0.00000E+00  9.000E+00
      -5     1     1     2     0   503  2.351015832E+01  2.813671419E+01 -7.245759730E+02  7.255186458E+02  4.750000000E+00  0.00000E+00  9.000E+00
      21     1     1     2   502   512 -4.753441732E+00  5.001478025E+00  9.794689050E+02  9.794932086E+02  1.078959322E-05  0.00000E+00  9.000E+00
#rwgt            1           9   1.9585234331389954E-002           4     1160728           0
</event>
<event>
      6   9999  3.45752E-01  1.16266E+01 -1.00000E+00  1.80553E-01
      21    -1     0     0   501   502  0.000000000E+00  0.000000000E+00  3.671833216E+01  3.671833216E+01  0.000000000E+00  0.00000E+00  9.000E+00
      21    -1     0     0   502   511  0.000000000E+00  0.000000000E+00 -1.454349965E+03  1.454349965E+03  0.000000000E+00  0.00000E+00  9.000E+00
      25     1     1     2     0     0  6.782490546E+00  6.607029511E+01 -4.102563704E+02  4.339897305E+02  1.250020427E+02  0.00000E+00  9.000E+00
       5     1     1     2   501     0 -5.861386063E+00  2.775263304E+00  2.276803609E+01  2.414547370E+01  4.750000000E+00  0.00000E+00  9.000E+00
      -5     1     1     2     0   503 -6.736568850E+00 -5.877783467E+01 -6.764892485E+02  6.790879774E+02  4.750000000E+00  0.00000E+00  9.000E+00
      21     1     1     2   503   511  5.815464367E+00 -1.006772375E+01 -3.536540495E+02  3.538451150E+02  3.814697266E-06  0.00000E+00  9.000E+00
#rwgt            1           9   7.8779938300617101E-003           4     1164695           0
</event>
<event>
      6   9999  3.45752E-01  3.93854E+00 -1.00000E+00  2.49250E-01
      21    -1     0     0   501   512  0.000000000E+00  0.000000000E+00  1.570777663E+01  1.570777663E+01  0.000000000E+00  0.00000E+00  9.000E+00
      21    -1     0     0   502   503  0.000000000E+00  0.000000000E+00 -7.640393854E+02  7.640393854E+02  0.000000000E+00  0.00000E+00  9.000E+00
      25     1     1     2     0     0 -1.402731368E+01 -4.963259242E+00 -4.724809293E+02  4.889648799E+02  1.250081028E+02  0.00000E+00  9.000E+00
       5     1     1     2   501     0 -4.503792581E-01 -2.127249322E+00  5.698792613E+00  7.730896999E+00  4.750000000E+00  0.00000E+00  9.000E+00
      -5     1     1     2     0   503  1.263652783E+01  3.608816824E+00 -2.753646542E+02  2.757189886E+02  4.750000000E+00  0.00000E+00  9.000E+00
      21     1     1     2   502   512  1.841165114E+00  3.481691740E+00 -6.184817897E+00  7.332396523E+00  1.685873940E-07  0.00000E+00  9.000E+00
#rwgt            1           9   464.62068003903363                4     1168006           0
</event>
<event>
      6   9999  3.45752E-01  9.06354E+00 -1.00000E+00  1.91807E-01
      21    -1     0     0   501   502  0.000000000E+00  0.000000000E+00  1.020274527E+01  1.020274527E+01  0.000000000E+00  0.00000E+00  9.000E+00
      21    -1     0     0   502   511  0.000000000E+00  0.000000000E+00 -8.843851581E+02  8.843851581E+02  0.000000000E+00  0.00000E+00  9.000E+00
      25     1     1     2     0     0 -8.258749585E+00  1.135713175E+00 -5.482467061E+02  5.623781736E+02  1.250010505E+02  0.00000E+00  9.000E+00
       5     1     1     2   501     0 -9.024189273E-02  2.133558338E+00  5.754161111E-01  5.239639156E+00  4.750000000E+00  0.00000E+00  9.000E+00
      -5     1     1     2     0   503  2.893433200E+00  3.968447739E+00 -2.082949926E+02  2.084070224E+02  4.750000000E+00  0.00000E+00  9.000E+00
      21     1     1     2   503   511  5.455558278E+00 -7.237719252E+00 -1.182161302E+02  1.185630682E+02  0.000000000E+00  0.00000E+00  9.000E+00
#rwgt            1           9  0.20997833780840749                4     1173448           0
</event>
<event>
      6   9999  3.45752E-01  1.27292E+02 -1.00000E+00  1.16144E-01
      21    -1     0     0   501   502  0.000000000E+00  0.000000000E+00  1.571835043E+02  1.571835043E+02  0.000000000E+00  0.00000E+00  9.000E+00
      21    -1     0     0   502   512  0.000000000E+00  0.000000000E+00 -1.093852026E+03  1.093852026E+03  0.000000000E+00  0.00000E+00  9.000E+00
      25     1     1     2     0     0  1.663948080E+02 -1.894608095E+01 -7.374363971E+02  7.664747424E+02  1.249996192E+02  0.00000E+00  9.000E+00
       5     1     1     2   501     0 -1.305986112E+00 -2.627900907E+00  1.018175188E+02  1.019704913E+02  4.750000000E+00  0.00000E+00  9.000E+00
      -5     1     1     2     0   503 -7.658778264E+01 -6.991754234E+01 -9.690569991E+01  1.420120711E+02  4.750000000E+00  0.00000E+00  9.000E+00
      21     1     1     2   503   512 -8.850103923E+01  9.149152419E+01 -2.041439437E+02  2.405782257E+02  2.697398305E-06  0.00000E+00  9.000E+00
#rwgt            1           9   6.7437195473485402E-003           4     1175951           0
</event>
<event>
      6   9999 -3.45752E-01  6.75494E+00 -1.00000E+00  2.07131E-01
      21    -1     0     0   511   502  0.000000000E+00  0.000000000E+00  9.755461689E+01  9.755461689E+01  0.000000000E+00  0.00000E+00  9.000E+00
      21    -1     0     0   502   503  0.000000000E+00  0.000000000E+00 -1.065587155E+03  1.065587155E+03  0.000000000E+00  0.00000E+00  9.000E+00
      25     1     1     2     0     0 -2.539428386E+02 -1.023180904E+02 -6.020232817E+02  6.730625602E+02  1.250008852E+02  0.00000E+00  9.000E+00
       5     1     1     2   501     0  2.536425930E+02  9.439449557E+01 -3.719643588E+02  4.600270997E+02  4.750000000E+00  0.00000E+00  9.000E+00
      -5     1     1     2     0   503  4.254599302E+00  2.447071745E+00 -1.035145690E+01  1.240181178E+01  4.750000000E+00  0.00000E+00  9.000E+00
      21     1     1     2   511   501 -3.954353643E+00  5.476523038E+00  1.630655935E+01  1.765030014E+01  8.920806376E-07  0.00000E+00  9.000E+00
#rwgt            1           9  -1.7524990070164369E-003           4     1176584           0
</event>
<event>
      6   9999  3.45752E-01  3.74131E+00 -1.00000E+00  2.54017E-01
      21    -1     0     0   501   502  0.000000000E+00  0.000000000E+00  1.560453721E+02  1.560453721E+02  0.000000000E+00  0.00000E+00  9.000E+00
      21    -1     0     0   502   512  0.000000000E+00  0.000000000E+00 -1.291983693E+02  1.291983693E+02  0.000000000E+00  0.00000E+00  9.000E+00
      25     1     1     2     0     0  3.275795638E+01  1.455967024E+01 -5.033492319E+01  1.394365864E+02  1.249955577E+02  0.00000E+00  9.000E+00
       5     1     1     2   501     0 -2.689812863E+00  2.258441965E+00  1.007596206E+02  1.009326473E+02  4.750000000E+00  0.00000E+00  9.000E+00
      -5     1     1     2     0   503 -2.776953542E+01 -1.977002464E+01 -2.171369375E+01  4.069456927E+01  4.750000000E+00  0.00000E+00  9.000E+00
      21     1     1     2   503   512 -2.298608097E+00  2.951912437E+00 -1.864000826E+00  4.179938432E+00  1.010645923E-07  0.00000E+00  9.000E+00
#rwgt            1           9   1.0654159071385352E-004           4     1181594           0
</event>
<event>
      6   9999  3.45752E-01  6.17360E+00 -1.00000E+00  2.12347E-01
      21    -1     0     0   511   503  0.000000000E+00  0.000000000E+00  2.830706294E+02  2.830706294E+02  0.000000000E+00  0.00000E+00  9.000E+00
      21    -1     0     0   501   502  0.000000000E+00  0.000000000E+00 -8.067093845E+02  8.067093845E+02  0.000000000E+00  0.00000E+00  9.000E+00
      25     1     1     2     0     0  1.392333381E+00  1.765816078E+01 -7.711221750E+02  7.813880268E+02  1.249963616E+02  0.00000E+00  9.000E+00
       5     1     1     2   501     0  5.623114281E-02 -1.261541817E-01 -9.858160772E+00  1.094371558E+01  4.750000000E+00  0.00000E+00  9.000E+00
      -5     1     1     2     0   503  4.722038123E+00 -1.772439505E+01 -1.553488478E+01  2.450197888E+01  4.750000000E+00  0.00000E+00  9.000E+00
      21     1     1     2   511   502 -6.170602648E+00  1.923884550E-01  2.728764654E+02  2.729462927E+02  5.394796609E-06  0.00000E+00  9.000E+00
#rwgt            1           9   1.3494411426136265E-004           4     1187833           0
</event>
<event>
      6   9999  3.45752E-01  7.37890E+00 -1.00000E+00  2.02264E-01
      21    -1     0     0   501   502  0.000000000E+00  0.000000000E+00  9.227602780E+02  9.227602780E+02  0.000000000E+00  0.00000E+00  9.000E+00
      21    -1     0     0   502   512  0.000000000E+00  0.000000000E+00 -6.039924287E+00  6.039924287E+00  0.000000000E+00  0.00000E+00  9.000E+00
      25     1     1     2     0     0 -4.890871818E-01  6.919418029E+00  7.245849601E+02  7.353220539E+02  1.250081634E+02  0.00000E+00  9.000E+00
       5     1     1     2   501     0 -5.762644440E-01  2.147052707E-01  7.394655228E+01  7.410150655E+01  4.750000000E+00  0.00000E+00  9.000E+00
      -5     1     1     2     0   503 -6.006976628E+00 -5.029278711E+00  7.562177289E+01  7.617474941E+01  4.750000000E+00  0.00000E+00  9.000E+00
      21     1     1     2   503   512  7.072328253E+00 -2.104844589E+00  4.256706840E+01  4.320189244E+01  8.259061849E-07  0.00000E+00  9.000E+00
#rwgt            1           9   4.9308984124629175E-004           4     1191083           0
</event>
<event>
      6   9999  3.45752E-01  7.93987E+00 -1.00000E+00  1.98404E-01
      21    -1     0     0   501   502  0.000000000E+00  0.000000000E+00  1.351362598E+02  1.351362598E+02  0.000000000E+00  0.00000E+00  9.000E+00
      21    -1     0     0   502   511  0.000000000E+00  0.000000000E+00 -7.236893386E+02  7.236893386E+02  0.000000000E+00  0.00000E+00  9.000E+00
      25     1     1     2     0     0  3.012372284E+01  8.701991759E+01 -2.343201331E+00  1.552442791E+02  1.249615576E+02  0.00000E+00  9.000E+00
       5     1     1     2   501     0 -3.772167175E+00 -1.179034307E+00  5.395738862E+01  5.431005113E+01  4.750000000E+00  0.00000E+00  9.000E+00
      -5     1     1     2     0   503 -2.697174247E+01 -9.375649108E+01 -5.378959287E+02  5.466921868E+02  4.750000000E+00  0.00000E+00  9.000E+00
      21     1     1     2   503   511  6.201868077E-01  7.915607797E+00 -1.022713374E+02  1.025790813E+02  1.348699152E-06  0.00000E+00  9.000E+00
#rwgt            1           9   3.2735946035038487E-004           4     1193586           0
</event>
<event>
      6   9999  3.45752E-01  1.95171E+01 -1.00000E+00  1.61025E-01
      21    -1     0     0   501   512  0.000000000E+00  0.000000000E+00  2.422246480E+01  2.422246480E+01  0.000000000E+00  0.00000E+00  9.000E+00
      21    -1     0     0   502   503  0.000000000E+00  0.000000000E+00 -1.074720439E+03  1.074720439E+03  0.000000000E+00  0.00000E+00  9.000E+00
      25     1     1     2     0     0 -3.439904219E+01  6.903056311E+01 -3.266539404E+02  3.581570134E+02  1.250005469E+02  0.00000E+00  9.000E+00
       5     1     1     2   501     0  1.043880652E+00  1.684513960E+00  2.649430495E+00  5.788717997E+00  4.750000000E+00  0.00000E+00  9.000E+00
      -5     1     1     2     0   503  5.096273233E+01 -6.229546049E+01 -6.771668692E+02  6.819497457E+02  4.750000000E+00  0.00000E+00  9.000E+00
      21     1     1     2   502   512 -1.760757080E+01 -8.419616580E+00 -4.932659556E+01  5.304742711E+01  6.743495762E-07  0.00000E+00  9.000E+00
#rwgt            1           9   6.4344769545924435E-004           4     1198279           0
</event>
<event>
      6   9999  3.45752E-01  9.62378E+00 -1.00000E+00  1.88965E-01
      21    -1     0     0   501   502  0.000000000E+00  0.000000000E+00  1.991434197E+01  1.991434197E+01  0.000000000E+00  0.00000E+00  9.000E+00
      21    -1     0     0   502   511  0.000000000E+00  0.000000000E+00 -1.213440856E+03  1.213440856E+03  0.000000000E+00  0.00000E+00  9.000E+00
      25     1     1     2     0     0 -1.332847959E+01 -4.442808066E+01 -8.421436336E+02  8.526332544E+02  1.250042562E+02  0.00000E+00  9.000E+00
       5     1     1     2   501     0 -3.472790239E-01  1.804876495E+00  1.016006310E+01  1.136519090E+01  4.750000000E+00  0.00000E+00  9.000E+00
      -5     1     1     2     0   503  2.274023836E+01  3.939020854E+01 -1.335837025E+02  1.411944583E+02  4.750000000E+00  0.00000E+00  9.000E+00
      21     1     1     2   503   511 -9.064479742E+00  3.232995620E+00 -2.279592408E+02  2.281622942E+02  2.697398305E-06  0.00000E+00  9.000E+00
#rwgt            1           9   2.7771207903507749E-005           4     1200200           0
</event>
<event>
      6   9999 -3.45752E-01  4.05751E+00 -1.00000E+00  2.46574E-01
      21    -1     0     0   501   502  0.000000000E+00  0.000000000E+00  1.050206655E+02  1.050206655E+02  0.000000000E+00  0.00000E+00  9.000E+00
      21    -1     0     0   502   512  0.000000000E+00  0.000000000E+00 -1.811737610E+02  1.811737610E+02  0.000000000E+00  0.00000E+00  9.000E+00
      25     1     1     2     0     0  4.684267105E+00  3.780686786E+00 -1.346760920E+02  1.838478321E+02  1.250045585E+02  0.00000E+00  9.000E+00
       5     1     1     2   501     0 -1.483512444E+00 -2.272316831E+00  7.893548043E+01  7.912481787E+01  4.750000000E+00  0.00000E+00  9.000E+00
      -5     1     1     2     0   503  8.558377945E-01 -1.594435061E+00 -4.463035185E+00  6.764308136E+00  4.750000000E+00  0.00000E+00  9.000E+00
      21     1     1     2   503   512 -4.056592456E+00  8.606510503E-02 -1.594944880E+01  1.645746841E+01  1.685873940E-07  0.00000E+00  9.000E+00
#rwgt            1           9  -2.3908284390788547E-003           4     1203279           0
</event>
<event>
      6   9999  3.45752E-01  1.17927E+01 -1.00000E+00  1.79953E-01
      21    -1     0     0   501   502  0.000000000E+00  0.000000000E+00  1.608155002E+01  1.608155002E+01  0.000000000E+00  0.00000E+00  9.000E+00
      21    -1     0     0   511   503  0.000000000E+00  0.000000000E+00 -1.020760943E+03  1.020760943E+03  0.000000000E+00  0.00000E+00  9.000E+00
      25     1     1     2     0     0  1.711380776E+01  3.270716976E+01 -7.853896813E+02  7.961313089E+02  1.250018729E+02  0.00000E+00  9.000E+00
       5     1     1     2   501     0 -1.785594693E+00 -3.049430430E+00  6.367724359E+00  8.694698837E+00  4.750000000E+00  0.00000E+00  9.000E+00
      -5     1     1     2     0   503 -1.017821292E+01 -4.026642289E+01 -1.641980962E+02  1.694360001E+02  4.750000000E+00  0.00000E+00  9.000E+00
      21     1     1     2   511   502 -5.150000147E+00  1.060868356E+01 -6.145934023E+01  6.258048554E+01  6.743495762E-07  0.00000E+00  9.000E+00
#rwgt            1           9   1.7338691981488173E-003           4     1208700           0
</event>
<event>
      6   9999  3.45752E-01  1.17561E+01 -1.00000E+00  1.80084E-01
      21    -1     0     0   501   502  0.000000000E+00  0.000000000E+00  7.323292236E+00  7.323292236E+00  0.000000000E+00  0.00000E+00  9.000E+00
      21    -1     0     0   512   503  0.000000000E+00  0.000000000E+00 -9.702106545E+02  9.702106545E+02  0.000000000E+00  0.00000E+00  9.000E+00
      25     1     1     2     0     0  1.365129118E+01  5.116686326E+00 -5.808022949E+02  5.942747669E+02  1.249746156E+02  0.00000E+00  9.000E+00
       5     1     1     2   501     0  1.284091889E+00 -3.183128018E-01 -1.670193807E+01  1.741457580E+01  4.750000000E+00  0.00000E+00  9.000E+00
      -5     1     1     2     0   503 -4.305718196E+00  2.233040353E-01 -1.044840922E+02  1.046808344E+02  4.750000000E+00  0.00000E+00  9.000E+00
      21     1     1     2   512   502 -1.062966487E+01 -5.021677559E+00 -2.608990370E+02  2.611637696E+02  3.814697266E-06  0.00000E+00  9.000E+00
#rwgt            1           9  0.71921708760629333                4     1211153           0
</event>
<event>
      6   9999  3.45752E-01  1.47132E+00 -1.00000E+00  4.04674E-01
      21    -1     0     0   511   502  0.000000000E+00  0.000000000E+00  1.318725857E+01  1.318725857E+01  0.000000000E+00  0.00000E+00  9.000E+00
      21    -1     0     0   502   503  0.000000000E+00  0.000000000E+00 -1.005798659E+03  1.005798659E+03  0.000000000E+00  0.00000E+00  9.000E+00
      25     1     1     2     0     0 -4.023098792E+00 -6.731831847E-01 -9.815343431E+02  9.894684916E+02  1.249863620E+02  0.00000E+00  9.000E+00
       5     1     1     2   501     0  3.929618125E+00 -1.255113197E+00  7.557235908E+00  9.833184749E+00  4.750000000E+00  0.00000E+00  9.000E+00
      -5     1     1     2     0   503  3.897747559E-01  4.871202540E-01 -1.279670591E+01  1.366409136E+01  4.750000000E+00  0.00000E+00  9.000E+00
      21     1     1     2   511   501 -2.962940893E-01  1.441176128E+00 -5.837587603E+00  6.020150151E+00  1.192092896E-07  0.00000E+00  9.000E+00
#rwgt            1           9   7.7471103109542826E-005           4     1213036           0
</event>
<event>
      6   9999  3.45752E-01  8.25917E+00 -1.00000E+00  1.96390E-01
      -2    -1     0     0     0   502  0.000000000E+00  0.000000000E+00  5.135866478E+01  5.135866478E+01  0.000000000E+00  0.00000E+00  9.000E+00
      21    -1     0     0   502   503  0.000000000E+00  0.000000000E+00 -1.460437401E+03  1.460437401E+03  0.000000000E+00  0.00000E+00  9.000E+00
      25     1     1     2     0     0  2.153224478E+01 -1.725608430E+01 -2.575415771E+02  2.875999880E+02  1.249987168E+02  0.00000E+00  9.000E+00
       5     1     1     2   501     0  9.979691183E-01  1.073100491E+00 -3.991457114E-01  4.986913306E+00  4.750000000E+00  0.00000E+00  9.000E+00
      -5     1     1     2     0   503 -1.687311080E+01  2.220054341E+01 -1.184501192E+03  1.184838893E+03  4.750000000E+00  0.00000E+00  9.000E+00
      -2     1     1     2     0   501 -5.657103104E+00 -6.017559598E+00  3.336317883E+01  3.437027117E+01  1.430511475E-06  0.00000E+00  9.000E+00
#rwgt            1           9   4.7468199093917522E-002           4     1223506           0
</event>
<event>
      6   9999  3.45752E-01  3.25482E+01 -1.00000E+00  1.45584E-01
      21    -1     0     0   501   502  0.000000000E+00  0.000000000E+00  7.307061090E+01  7.307061090E+01  0.000000000E+00  0.00000E+00  9.000E+00
      21    -1     0     0   502   511  0.000000000E+00  0.000000000E+00 -1.865801079E+03  1.865801079E+03  0.000000000E+00  0.00000E+00  9.000E+00
      25     1     1     2     0     0 -1.664019411E+02  4.123893942E+01 -7.995325657E+02  8.272047368E+02  1.250003877E+02  0.00000E+00  9.000E+00
       5     1     1     2   501     0  1.199450385E+01  3.279144533E+00  4.424583559E+01  4.620473329E+01  4.750000000E+00  0.00000E+00  9.000E+00
      -5     1     1     2     0   503  1.866724219E+02 -4.023334914E+01 -6.734535623E+02  7.000196987E+02  4.750000000E+00  0.00000E+00  9.000E+00
      21     1     1     2   503   511 -3.226498467E+01 -4.284734818E+00 -3.639901755E+02  3.654425209E+02  5.394796609E-06  0.00000E+00  9.000E+00
#rwgt            1           9   1.9419475632116414E-004           4     1227288           0
</event>
<event>
      6   9999 -3.45752E-01  1.15272E+01 -1.00000E+00  1.80918E-01
      21    -1     0     0   501   502  0.000000000E+00  0.000000000E+00  4.500591770E+01  4.500591770E+01  0.000000000E+00  0.00000E+00  9.000E+00
      21    -1     0     0   512   503  0.000000000E+00  0.000000000E+00 -1.540182057E+02  1.540182057E+02  0.000000000E+00  0.00000E+00  9.000E+00
      25     1     1     2     0     0 -8.472753353E+00  2.382101161E+00 -1.037518917E+02  1.626869747E+02  1.250005390E+02  0.00000E+00  9.000E+00
       5     1     1     2   501     0 -1.961512589E+00 -7.381961025E-01  1.165995859E+01  1.276360449E+01  4.750000000E+00  0.00000E+00  9.000E+00
      -5     1     1     2     0   503 -8.348267397E-01  7.818232240E-01 -5.146704363E+00  7.096425089E+00  4.750000000E+00  0.00000E+00  9.000E+00
      21     1     1     2   512   502  1.126909268E+01 -2.425728283E+00 -1.177365047E+01  1.647711907E+01  3.371747881E-07  0.00000E+00  9.000E+00
#rwgt            1           9  -1.2005296771789810E-003           4     1229316           0
</event>
<event>
      6   9999  3.45752E-01  3.27896E+01 -1.00000E+00  1.45383E-01
      21    -1     0     0   511   503  0.000000000E+00  0.000000000E+00  2.513709265E+01  2.513709265E+01  0.000000000E+00  0.00000E+00  9.000E+00
      21    -1     0     0   501   502  0.000000000E+00  0.000000000E+00 -7.667869464E+02  7.667869464E+02  0.000000000E+00  0.00000E+00  9.000E+00
      25     1     1     2     0     0  2.331585795E+01  1.260422976E+01 -5.808542090E+02  5.947427357E+02  1.249992547E+02  0.00000E+00  9.000E+00
       5     1     1     2   501     0 -2.940684236E+00 -8.028351202E+00 -4.763455051E+01  4.862833484E+01  4.750000000E+00  0.00000E+00  9.000E+00
      -5     1     1     2     0   503  1.015985359E+01 -1.652460548E+01 -1.140163178E+02  1.157521854E+02  4.750000000E+00  0.00000E+00  9.000E+00
      21     1     1     2   511   502 -3.053502730E+01  1.194872692E+01  8.552235245E-01  3.280078314E+01  1.279375553E-06  0.00000E+00  9.000E+00
#rwgt            1           9   7.5856632467712288E-004           4     1231391           0
</event>
<event>
      6   9999  3.45752E-01  3.67107E+01 -1.00000E+00  1.42382E-01
      21    -1     0     0   502   503  0.000000000E+00  0.000000000E+00  2.551327303E+01  2.551327303E+01  0.000000000E+00  0.00000E+00  9.000E+00
       2    -1     0     0   501     0  0.000000000E+00  0.000000000E+00 -2.956599386E+03  2.956599386E+03  0.000000000E+00  0.00000E+00  9.000E+00
      25     1     1     2     0     0  5.022926729E+01 -1.094801752E+02 -7.041487434E+02  7.252303498E+02  1.249988777E+02  0.00000E+00  9.000E+00
       5     1     1     2   501     0  4.934892353E-01  6.981869702E-01 -1.065579292E+00  4.942565720E+00  4.750000000E+00  0.00000E+00  9.000E+00
      -5     1     1     2     0   503 -2.521056768E+01  1.351790112E+02 -3.553522587E+02  3.810600058E+02  4.750000000E+00  0.00000E+00  9.000E+00
       2     1     1     2   502     0 -2.551218884E+01 -2.639702294E+01 -1.870519531E+03  1.870879737E+03  0.000000000E+00  0.00000E+00  9.000E+00
#rwgt            1           9   4.1511385145714511E-005           4     1232606           0
</event>
<event>
      6   9999  3.45752E-01  6.03390E+00 -1.00000E+00  2.13718E-01
      21    -1     0     0   501   511  0.000000000E+00  0.000000000E+00  2.446597635E+01  2.446597635E+01  0.000000000E+00  0.00000E+00  9.000E+00
      21    -1     0     0   502   503  0.000000000E+00  0.000000000E+00 -1.070729023E+03  1.070729023E+03  0.000000000E+00  0.00000E+00  9.000E+00
      25     1     1     2     0     0 -7.602712041E+00 -3.302561819E+01 -4.698658859E+02  4.873813424E+02  1.249725151E+02  0.00000E+00  9.000E+00
       5     1     1     2   501     0  2.368616826E+00 -2.346395873E-01  1.016176815E+01  1.146688420E+01  4.750000000E+00  0.00000E+00  9.000E+00
      -5     1     1     2     0   503 -3.567256501E-01  3.099073905E+01 -5.890027802E+02  5.898367492E+02  4.750000000E+00  0.00000E+00  9.000E+00
      21     1     1     2   502   511  5.590820866E+00  2.269518728E+00  2.443851481E+00  6.510023293E+00  1.954268969E-07  0.00000E+00  9.000E+00
#rwgt            1           9   2.7816824110968503E-003           4     1233617           0
</event>
<event>
      6   9999 -3.45752E-01  7.40657E+00 -1.00000E+00  2.02063E-01
      21    -1     0     0   501   502  0.000000000E+00  0.000000000E+00  1.014690894E+01  1.014690894E+01  0.000000000E+00  0.00000E+00  9.000E+00
      21    -1     0     0   502   512  0.000000000E+00  0.000000000E+00 -7.720494426E+02  7.720494426E+02  0.000000000E+00  0.00000E+00  9.000E+00
      25     1     1     2     0     0  9.824700338E+00  4.773139554E+00 -6.439843035E+02  6.560942613E+02  1.249983557E+02  0.00000E+00  9.000E+00
       5     1     1     2   501     0  2.416960699E+00  8.060745180E-02  1.607649637E+00  5.567336341E+00  4.750000000E+00  0.00000E+00  9.000E+00
      -5     1     1     2     0   503 -6.629933692E+00 -1.992502904E-02 -6.264329490E+01  6.317199786E+01  4.750000000E+00  0.00000E+00  9.000E+00
      21     1     1     2   503   512 -5.611727345E+00 -4.833821977E+00 -5.688258489E+01  5.736275606E+01  1.168007728E-06  0.00000E+00  9.000E+00
#rwgt            1           9  -2.0445051060928941E-002           4     1238078           0
</event>
<event>
      6   9999  3.45752E-01  6.86253E+00 -1.00000E+00  2.06242E-01
      21    -1     0     0   502   511  0.000000000E+00  0.000000000E+00  1.491797818E+02  1.491797818E+02  0.000000000E+00  0.00000E+00  9.000E+00
      21    -1     0     0   501   502  0.000000000E+00  0.000000000E+00 -7.954439694E+02  7.954439694E+02  0.000000000E+00  0.00000E+00  9.000E+00
      25     1     1     2     0     0 -1.886757466E+01 -1.123545071E+01 -6.318458381E+02  6.444660972E+02  1.250006660E+02  0.00000E+00  9.000E+00
       5     1     1     2   501     0 -4.140214017E+00 -5.936147774E+00 -8.143088382E+01  8.188974638E+01  4.750000000E+00  0.00000E+00  9.000E+00
      -5     1     1     2     0   503  2.323084838E+01  2.403050344E+01 -7.177120698E+01  7.931460183E+01  4.750000000E+00  0.00000E+00  9.000E+00
      21     1     1     2   503   511 -2.230597033E-01 -6.858904952E+00  1.387837413E+02  1.389533058E+02  4.264961200E-06  0.00000E+00  9.000E+00
#rwgt            1           9   3.4769364514725752E-002           4     1240931           0
</event>
<event>
      6   9999  3.45752E-01  7.84976E+00 -1.00000E+00  1.98995E-01
      21    -1     0     0   501   502  0.000000000E+00  0.000000000E+00  1.650197958E+02  1.650197958E+02  0.000000000E+00  0.00000E+00  9.000E+00
      21    -1     0     0   512   503  0.000000000E+00  0.000000000E+00 -6.005916186E+01  6.005916186E+01  0.000000000E+00  0.00000E+00  9.000E+00
      25     1     1     2     0     0  1.292078981E+01  2.271399246E+01  6.924060064E+01  1.452676717E+02  1.250022535E+02  0.00000E+00  9.000E+00
       5     1     1     2   501     0 -1.646061830E+00  7.759441224E-01  4.137011607E+01  4.168165799E+01  4.750000000E+00  0.00000E+00  9.000E+00
      -5     1     1     2     0   503 -1.841666491E+01 -2.023241808E+01  1.080470062E+00  2.778946209E+01  4.750000000E+00  0.00000E+00  9.000E+00
      21     1     1     2   512   502  7.141936927E+00 -3.257518504E+00 -6.730552827E+00  1.034016592E+01  8.429369702E-08  0.00000E+00  9.000E+00
#rwgt            1           9   4.0881205295310741E-003           4     1244856           0
</event>
<event>
      6   9999  3.45752E-01  2.21102E+01 -1.00000E+00  1.56955E-01
      21    -1     0     0   511   503  0.000000000E+00  0.000000000E+00  1.063708857E+02  1.063708857E+02  0.000000000E+00  0.00000E+00  9.000E+00
      21    -1     0     0   501   502  0.000000000E+00  0.000000000E+00 -8.963167132E+02  8.963167132E+02  0.000000000E+00  0.00000E+00  9.000E+00
      25     1     1     2     0     0 -1.912118361E+01  2.526303305E+01 -7.934721981E+02  8.038818432E+02  1.249961930E+02  0.00000E+00  9.000E+00
       5     1     1     2   501     0  2.199888610E+01 -3.338716523E+01 -5.694674732E+01  6.974344645E+01  4.750000000E+00  0.00000E+00  9.000E+00
      -5     1     1     2     0   503  1.898056532E+01  4.796211467E+00 -2.988364978E+01  3.603970766E+01  4.750000000E+00  0.00000E+00  9.000E+00
      21     1     1     2   511   502 -2.185826781E+01  3.327920713E+00  9.035676765E+01  9.302260149E+01  2.861022949E-06  0.00000E+00  9.000E+00
#rwgt            1           9   2.2321583065168773E-004           4     1247638           0
</event>
<event>
      6   9999  3.45752E-01  1.13422E+01 -1.00000E+00  1.81610E-01
      21    -1     0     0   501   502  0.000000000E+00  0.000000000E+00  4.735207695E+01  4.735207695E+01  0.000000000E+00  0.00000E+00  9.000E+00
      21    -1     0     0   512   503  0.000000000E+00  0.000000000E+00 -6.318309560E+02  6.318309560E+02  0.000000000E+00  0.00000E+00  9.000E+00
      25     1     1     2     0     0 -1.310140506E+01  1.253251303E+01 -1.604841222E+02  2.042254576E+02  1.249966933E+02  0.00000E+00  9.000E+00
       5     1     1     2   501     0 -4.467618411E+00 -5.382126323E+00  2.418933739E+01  2.562446958E+01  4.750000000E+00  0.00000E+00  9.000E+00
      -5     1     1     2     0   503  1.141540684E+01 -1.667821936E+01 -2.845716164E+02  2.853279550E+02  4.750000000E+00  0.00000E+00  9.000E+00
      21     1     1     2   512   502  6.153616629E+00  9.527832652E+00 -1.636124778E+02  1.640051508E+02  3.303624740E-06  0.00000E+00  9.000E+00
#rwgt            1           9   1.8981946613923101E-005           4     1248889           0
</event>
<event>
      6   9999  3.45752E-01  2.18206E+01 -1.00000E+00  1.57375E-01
      21    -1     0     0   501   502  0.000000000E+00  0.000000000E+00  2.395170140E+01  2.395170140E+01  0.000000000E+00  0.00000E+00  9.000E+00
       2    -1     0     0   502     0  0.000000000E+00  0.000000000E+00 -2.931495866E+03  2.931495866E+03  0.000000000E+00  0.00000E+00  9.000E+00
      25     1     1     2     0     0 -4.116004880E+01 -4.559509512E+00 -5.517519292E+02  5.672493297E+02  1.250066873E+02  0.00000E+00  9.000E+00
       5     1     1     2   501     0  2.698155384E+00  2.093520235E+00  1.459586095E+01  1.572464710E+01  4.750000000E+00  0.00000E+00  9.000E+00
      -5     1     1     2     0   503  3.618863447E+01  2.416783050E+01 -4.881079374E+02  4.900669570E+02  4.750000000E+00  0.00000E+00  9.000E+00
       2     1     1     2   503     0  2.273258938E+00 -2.170184122E+01 -1.882280158E+03  1.882406633E+03  3.051757812E-05  0.00000E+00  9.000E+00
#rwgt            1           9   1.0765750149477123E-003           4     1251793           0
</event>
<event>
      6   9999  3.45752E-01  2.06025E+01 -1.00000E+00  1.59233E-01
      21    -1     0     0   511   502  0.000000000E+00  0.000000000E+00  1.419196682E+01  1.419196682E+01  0.000000000E+00  0.00000E+00  9.000E+00
      21    -1     0     0   502   503  0.000000000E+00  0.000000000E+00 -8.589902789E+02  8.589902789E+02  0.000000000E+00  0.00000E+00  9.000E+00
      25     1     1     2     0     0 -3.161493082E+00  3.390446903E+00 -6.090488739E+02  6.217614925E+02  1.250013301E+02  0.00000E+00  9.000E+00
       5     1     1     2   501     0 -3.066414449E+00  1.545786197E+00  4.457300064E+00  7.363584480E+00  4.750000000E+00  0.00000E+00  9.000E+00
      -5     1     1     2     0   503 -1.437461150E+01 -4.926502509E+00 -1.738060908E+02  1.745337205E+02  4.750000000E+00  0.00000E+00  9.000E+00
      21     1     1     2   511   501  2.060251903E+01 -9.730590957E-03 -6.640064737E+01  6.952344824E+01  0.000000000E+00  0.00000E+00  9.000E+00
#rwgt            1           9   3.5785136991686429E-003           4     1253609           0
</event>
<event>
      6   9999  3.45752E-01  1.86457E+01 -1.00000E+00  1.62570E-01
      21    -1     0     0   501   502  0.000000000E+00  0.000000000E+00  2.791701279E+00  2.791701279E+00  0.000000000E+00  0.00000E+00  9.000E+00
      21    -1     0     0   502   512  0.000000000E+00  0.000000000E+00 -3.167630770E+03  3.167630770E+03  0.000000000E+00  0.00000E+00  9.000E+00
      25     1     1     2     0     0 -1.756368643E+01  1.736615769E+01 -2.451527890E+03  2.454836368E+03  1.249901121E+02  0.00000E+00  9.000E+00
       5     1     1     2   501     0 -1.540509086E+00  5.215229152E-01 -9.336761392E+00  1.060107389E+01  4.750000000E+00  0.00000E+00  9.000E+00
      -5     1     1     2     0   503  5.223682310E+00 -5.438051883E+00 -5.303007021E+01  5.377369349E+01  4.750000000E+00  0.00000E+00  9.000E+00
      21     1     1     2   503   512  1.388051321E+01 -1.244962872E+01 -6.509443468E+02  6.512113363E+02  1.321449896E-05  0.00000E+00  9.000E+00
#rwgt            1           9   9.3657919910747011E-005           4     1254858           0
</event>
<event>
      6   9999  3.45752E-01  1.28230E+01 -1.00000E+00  1.76493E-01
      21    -1     0     0   501   502  0.000000000E+00  0.000000000E+00  5.791943609E+02  5.791943609E+02  0.000000000E+00  0.00000E+00  9.000E+00
      21    -1     0     0   511   503  0.000000000E+00  0.000000000E+00 -7.005143502E+01  7.005143502E+01  0.000000000E+00  0.00000E+00  9.000E+00
      25     1     1     2     0     0  6.099646100E+00  1.227437860E+01  6.229401745E+00  1.258915660E+02  1.249880589E+02  0.00000E+00  9.000E+00
       5     1     1     2   501     0  1.210038330E+01 -2.844136300E+00  5.009253634E+02  5.011020761E+02  4.750000000E+00  0.00000E+00  9.000E+00
      -5     1     1     2     0   503 -6.434578304E+00 -4.330968258E+00  2.454796101E+00  9.420701030E+00  4.750000000E+00  0.00000E+00  9.000E+00
      21     1     1     2   511   502 -1.176545110E+01 -5.099274038E+00 -4.666353732E-01  1.283145291E+01  4.240617578E-07  0.00000E+00  9.000E+00
#rwgt            1           9   2.6657586002165391E-003           4     1255924           0
</event>
<event>
      6   9999  3.45752E-01  1.57325E+01 -1.00000E+00  1.68596E-01
      21    -1     0     0   501   512  0.000000000E+00  0.000000000E+00  1.540174072E+01  1.540174072E+01  0.000000000E+00  0.00000E+00  9.000E+00
      21    -1     0     0   502   503  0.000000000E+00  0.000000000E+00 -1.821644583E+03  1.821644583E+03  0.000000000E+00  0.00000E+00  9.000E+00
      25     1     1     2     0     0  8.216639324E+01  2.663759677E+01 -1.521268771E+03  1.528837672E+03  1.250002953E+02  0.00000E+00  9.000E+00
       5     1     1     2   501     0 -3.020047325E-01  9.035320581E-01  2.623105558E+00  5.509152367E+00  4.750000000E+00  0.00000E+00  9.000E+00
      -5     1     1     2     0   503 -6.834568928E+01 -1.949401363E+01 -2.693368703E+02  2.785965937E+02  4.750000000E+00  0.00000E+00  9.000E+00
      21     1     1     2   502   512 -1.351869923E+01 -8.047115196E+00 -1.826030579E+01  2.410290562E+01  5.840038640E-07  0.00000E+00  9.000E+00
#rwgt            1           9   7.4408533629106760E-004           4     1258656           0
</event>
<event>
      6   9999  3.45752E-01  1.66574E+00 -1.00000E+00  3.66989E-01
      21    -1     0     0   501   511  0.000000000E+00  0.000000000E+00  3.731309598E+01  3.731309598E+01  0.000000000E+00  0.00000E+00  9.000E+00
      21    -1     0     0   502   503  0.000000000E+00  0.000000000E+00 -1.221147039E+03  1.221147039E+03  0.000000000E+00  0.00000E+00  9.000E+00
      25     1     1     2     0     0 -6.081100798E+00  3.344853873E+00 -1.040538531E+03  1.048044945E+03  1.250184194E+02  0.00000E+00  9.000E+00
       5     1     1     2   501     0 -7.475104753E-01  1.020066012E+01  3.073949927E+01  3.274280920E+01  4.750000000E+00  0.00000E+00  9.000E+00
      -5     1     1     2     0   503  6.321242749E+00 -1.195892438E+01 -1.751060554E+02  1.756919665E+02  4.750000000E+00  0.00000E+00  9.000E+00
      21     1     1     2   502   511  5.073685246E-01 -1.586589611E+00  1.071144078E+00  1.980413858E+00  1.134838627E-07  0.00000E+00  9.000E+00
#rwgt            1           9   3.0450726179053562E-004           4     1261022           0
</event>
<event>
      6   9999  3.45752E-01  5.80715E+00 -1.00000E+00  2.16053E-01
      21    -1     0     0   512   502  0.000000000E+00  0.000000000E+00  1.812699643E+03  1.812699643E+03  0.000000000E+00  0.00000E+00  9.000E+00
      21    -1     0     0   502   503  0.000000000E+00  0.000000000E+00 -8.810927382E+02  8.810927382E+02  0.000000000E+00  0.00000E+00  9.000E+00
      25     1     1     2     0     0  3.937568200E+00  4.179098891E+00 -4.870245065E+02  5.028416525E+02  1.249955529E+02  0.00000E+00  9.000E+00
       5     1     1     2   501     0 -1.862940473E+00  1.198193074E+00  7.073211492E+00  8.803353603E+00  4.750000000E+00  0.00000E+00  9.000E+00
      -5     1     1     2     0   503  2.728896166E+00 -2.113993918E+00 -3.852675239E+02  3.853122673E+02  4.750000000E+00  0.00000E+00  9.000E+00
      21     1     1     2   512   501 -4.803523894E+00 -3.263298046E+00  1.796825724E+03  1.796835108E+03  2.157918644E-05  0.00000E+00  9.000E+00
#rwgt            1           9   4.2718160289828468E-004           4     1273488           0
</event>
<event>
      6   9999  3.45752E-01  3.41414E+01 -1.00000E+00  1.44295E-01
      21    -1     0     0   511   502  0.000000000E+00  0.000000000E+00  7.850598606E+01  7.850598606E+01  0.000000000E+00  0.00000E+00  9.000E+00
      21    -1     0     0   502   503  0.000000000E+00  0.000000000E+00 -1.592204501E+03  1.592204501E+03  0.000000000E+00  0.00000E+00  9.000E+00
      25     1     1     2     0     0  6.190682181E+01  2.763724247E+02 -1.030773303E+03  1.076258701E+03  1.250000688E+02  0.00000E+00  9.000E+00
       5     1     1     2   501     0  3.894535015E+00  3.113055408E+00  1.612822944E+01  1.753684127E+01  4.750000000E+00  0.00000E+00  9.000E+00
      -5     1     1     2     0   503 -6.547718932E+01 -2.453456506E+02 -4.561022896E+02  5.220475186E+02  4.750000000E+00  0.00000E+00  9.000E+00
      21     1     1     2   511   501 -3.241674995E-01 -3.413982956E+01 -4.295115219E+01  5.486742677E+01  1.066240300E-06  0.00000E+00  9.000E+00
#rwgt            1           9   9.2346766302065994E-003           4     1278171           0
</event>
<event>
      6   9999  3.45752E-01  6.96336E+00 -1.00000E+00  2.05429E-01
      21    -1     0     0   502   503  0.000000000E+00  0.000000000E+00  9.322161954E+01  9.322161954E+01  0.000000000E+00  0.00000E+00  9.000E+00
      21    -1     0     0   501   512  0.000000000E+00  0.000000000E+00 -1.487981140E+02  1.487981140E+02  0.000000000E+00  0.00000E+00  9.000E+00
      25     1     1     2     0     0  1.192111004E+01 -2.997289662E+01 -1.987906007E+01  1.306268500E+02  1.250108376E+02  0.00000E+00  9.000E+00
       5     1     1     2   501     0 -7.209924829E+00  4.424643334E+00  4.824492357E+00  1.083506858E+01  4.750000000E+00  0.00000E+00  9.000E+00
      -5     1     1     2     0   503 -5.862879095E+00  1.868079451E+01  2.643639098E+01  3.323839200E+01  4.750000000E+00  0.00000E+00  9.000E+00
      21     1     1     2   502   512  1.151693883E+00  6.867458771E+00 -6.695831776E+01  6.731942295E+01  0.000000000E+00  0.00000E+00  9.000E+00
#rwgt            1           9  0.87845750167385328                4     1280092           0
</event>
<event>
      6   9999  3.45752E-01  2.68497E+01 -1.00000E+00  1.51024E-01
      21    -1     0     0   502   511  0.000000000E+00  0.000000000E+00  1.068783027E+02  1.068783027E+02  0.000000000E+00  0.00000E+00  9.000E+00
      21    -1     0     0   501   502  0.000000000E+00  0.000000000E+00 -1.058523765E+03  1.058523765E+03  0.000000000E+00  0.00000E+00  9.000E+00
      25     1     1     2     0     0  5.584880259E+01 -3.363635536E+01 -2.761513686E+02  3.100551969E+02  1.249966144E+02  0.00000E+00  9.000E+00
       5     1     1     2   501     0 -9.473852352E+01  6.575855463E+00 -4.981920817E+02  5.071849194E+02  4.750000000E+00  0.00000E+00  9.000E+00
      -5     1     1     2     0   503  5.482812552E+01  5.453236768E+00 -2.576126786E+02  2.634819080E+02  4.750000000E+00  0.00000E+00  9.000E+00
      21     1     1     2   503   511 -1.593840459E+01  2.160726312E+01  8.031066669E+01  8.468004337E+01  3.162979880E-06  0.00000E+00  9.000E+00
#rwgt            1           9   9.0390558364581326E-003           4     1283235           0
</event>
<event>
      6   9999  3.45752E-01  8.75109E+00 -1.00000E+00  1.93511E-01
      21    -1     0     0   501   502  0.000000000E+00  0.000000000E+00  5.878637704E+00  5.878637704E+00  0.000000000E+00  0.00000E+00  9.000E+00
       2    -1     0     0   502     0  0.000000000E+00  0.000000000E+00 -2.551268332E+03  2.551268332E+03  0.000000000E+00  0.00000E+00  9.000E+00
      25     1     1     2     0     0  1.694087608E+01 -6.539230638E+00 -1.243500938E+03  1.249899819E+03  1.250008763E+02  0.00000E+00  9.000E+00
       5     1     1     2   501     0  8.358521785E-01  9.099222151E-01 -1.572627393E+00  5.153859158E+00  4.750000000E+00  0.00000E+00  9.000E+00
      -5     1     1     2     0   503 -9.737549097E+00  2.171983908E+00 -3.407365073E+01  3.582057440E+01  4.750000000E+00  0.00000E+00  9.000E+00
       2     1     1     2   503     0 -8.039179165E+00  3.457324515E+00 -1.266242478E+03  1.266272718E+03  2.642899792E-05  0.00000E+00  9.000E+00
#rwgt            1           9   1.7725020431207767E-004           4     1284855           0
</event>
<event>
      6   9999  3.45752E-01  1.08876E+01 -1.00000E+00  1.83386E-01
      21    -1     0     0   501   511  0.000000000E+00  0.000000000E+00  5.655131306E+02  5.655131306E+02  0.000000000E+00  0.00000E+00  9.000E+00
      21    -1     0     0   502   503  0.000000000E+00  0.000000000E+00 -2.502519671E+01  2.502519671E+01  0.000000000E+00  0.00000E+00  9.000E+00
      25     1     1     2     0     0 -2.923513212E+01  4.232544973E+00  1.607872793E+02  2.057934513E+02  1.250031521E+02  0.00000E+00  9.000E+00
       5     1     1     2   501     0 -1.827726777E+00 -4.150200228E+00  2.091594993E+02  2.092625704E+02  4.750000000E+00  0.00000E+00  9.000E+00
      -5     1     1     2     0   503  2.296915092E+01 -7.364589309E+00  6.695754123E+01  7.132807229E+01  4.750000000E+00  0.00000E+00  9.000E+00
      21     1     1     2   502   511  8.093707983E+00  7.282244564E+00  1.035836141E+02  1.041542332E+02  1.348699152E-06  0.00000E+00  9.000E+00
#rwgt            1           9   7.0405622747632109E-005           4     1287319           0
</event>
<event>
      6   9999  3.45752E-01  1.84141E+01 -1.00000E+00  1.62998E-01
      21    -1     0     0   501   502  0.000000000E+00  0.000000000E+00  4.686442259E+01  4.686442259E+01  0.000000000E+00  0.00000E+00  9.000E+00
      21    -1     0     0   512   503  0.000000000E+00  0.000000000E+00 -1.572047064E+03  1.572047064E+03  0.000000000E+00  0.00000E+00  9.000E+00
      25     1     1     2     0     0  9.531777201E+01  2.782845569E+00 -1.101556434E+03  1.112719566E+03  1.250001380E+02  0.00000E+00  9.000E+00
       5     1     1     2   501     0 -1.144444129E+00 -1.126234993E+01  3.107947842E+01  3.341626486E+01  4.750000000E+00  0.00000E+00  9.000E+00
      -5     1     1     2     0   503 -1.106669953E+02  2.918418941E-01 -3.784018587E+02  3.942813694E+02  4.750000000E+00  0.00000E+00  9.000E+00
      21     1     1     2   512   502  1.649366746E+01  8.187662468E+00 -7.630382738E+01  7.849428613E+01  1.348699152E-06  0.00000E+00  9.000E+00
#rwgt            1           9   1.9320700504062684E-002           4     1289751           0
</event>
<event>
      6   9999  3.45752E-01  1.25939E+01 -1.00000E+00  1.77226E-01
      21    -1     0     0   501   502  0.000000000E+00  0.000000000E+00  1.286357862E+02  1.286357862E+02  0.000000000E+00  0.00000E+00  9.000E+00
      21    -1     0     0   511   503  0.000000000E+00  0.000000000E+00 -6.482803949E+02  6.482803949E+02  0.000000000E+00  0.00000E+00  9.000E+00
      25     1     1     2     0     0 -1.110974720E+00 -1.267053777E+02 -9.306158986E+01  2.008517691E+02  1.250019466E+02  0.00000E+00  9.000E+00
       5     1     1     2   501     0  2.008083349E+00 -1.924113665E-01  5.119587370E+01  5.145531464E+01  4.750000000E+00  0.00000E+00  9.000E+00
      -5     1     1     2     0   503  1.169640353E+01  1.269987483E+02 -1.515187905E+02  1.981060178E+02  4.750000000E+00  0.00000E+00  9.000E+00
      21     1     1     2   511   502 -1.259351216E+01 -1.009592807E-01 -3.262601020E+02  3.265030795E+02  5.394796609E-06  0.00000E+00  9.000E+00
#rwgt            1           9   1.1955056638635964                4     1292272           0
</event>
<event>
      6   9999  3.45752E-01  4.67427E+01 -1.00000E+00  1.36372E-01
      21    -1     0     0   501   512  0.000000000E+00  0.000000000E+00  2.687481686E+02  2.687481686E+02  0.000000000E+00  0.00000E+00  9.000E+00
      21    -1     0     0   502   503  0.000000000E+00  0.000000000E+00 -3.529568326E+02  3.529568326E+02  0.000000000E+00  0.00000E+00  9.000E+00
      25     1     1     2     0     0  1.872945792E+02  2.148642368E+01 -2.377816198E+02  3.281863882E+02  1.250011236E+02  0.00000E+00  9.000E+00
       5     1     1     2   501     0  8.443627170E-01 -2.526495647E+00  1.327408997E+01  1.434782539E+01  4.750000000E+00  0.00000E+00  9.000E+00
      -5     1     1     2     0   503 -1.685816768E+02 -6.141449997E+01  6.568467558E+01  1.911244664E+02  4.750000000E+00  0.00000E+00  9.000E+00
      21     1     1     2   502   512 -1.955726517E+01  4.245457193E+01  7.461419027E+01  8.804632127E+01  9.536743164E-07  0.00000E+00  9.000E+00
#rwgt            1           9   1.1850740424513635E-003           4     1295843           0
</event>
<event>
      6   9999  3.45752E-01  3.81152E+00 -1.00000E+00  2.52270E-01
      21    -1     0     0   511   502  0.000000000E+00  0.000000000E+00  3.164310523E+00  3.164310523E+00  0.000000000E+00  0.00000E+00  9.000E+00
      21    -1     0     0   502   503  0.000000000E+00  0.000000000E+00 -4.439645040E+03  4.439645040E+03  0.000000000E+00  0.00000E+00  9.000E+00
      25     1     1     2     0     0  8.509391248E-01 -4.462795500E+00 -3.929642245E+03  3.931632396E+03  1.249979380E+02  0.00000E+00  9.000E+00
       5     1     1     2   501     0 -6.736496443E-02 -2.684207912E-01 -7.383612686E+01  7.398927434E+01  4.750000000E+00  0.00000E+00  9.000E+00
      -5     1     1     2     0   503 -2.984025639E+00  1.619033792E+00 -4.333233389E+02  4.333626706E+02  4.750000000E+00  0.00000E+00  9.000E+00
      21     1     1     2   511   501  2.200451479E+00  3.112182499E+00  3.209814837E-01  3.825009246E+00  7.849054938E-07  0.00000E+00  9.000E+00
#rwgt            1           9   3.0088223048938272E-004           4     1297435           0
</event>
<event>
      6   9999  3.45752E-01  7.84244E+00 -1.00000E+00  1.99044E-01
      21    -1     0     0   501   502  0.000000000E+00  0.000000000E+00  9.867281673E+00  9.867281673E+00  0.000000000E+00  0.00000E+00  9.000E+00
      21    -1     0     0   502   512  0.000000000E+00  0.000000000E+00 -1.048075675E+03  1.048075675E+03  0.000000000E+00  0.00000E+00  9.000E+00
      25     1     1     2     0     0 -3.100992014E-01 -5.360098348E-01 -6.703097040E+02  6.818656317E+02  1.250010281E+02  0.00000E+00  9.000E+00
       5     1     1     2   501     0 -1.259332846E+00  4.556919538E-02  2.235125889E+00  5.398729805E+00  4.750000000E+00  0.00000E+00  9.000E+00
      -5     1     1     2     0   503  1.348288081E-01  8.200544593E+00 -1.044697137E+02  1.048987640E+02  4.750000000E+00  0.00000E+00  9.000E+00
      21     1     1     2   503   512  1.434603239E+00 -7.710103954E+00 -2.656641013E+02  2.657798309E+02  3.814697266E-06  0.00000E+00  9.000E+00
#rwgt            1           9   2.5102565705405962E-005           4     1301207           0
</event>
<event>
      6   9999  3.45752E-01  1.02173E+01 -1.00000E+00  1.86216E-01
      21    -1     0     0   501   502  0.000000000E+00  0.000000000E+00  1.393207984E+01  1.393207984E+01  0.000000000E+00  0.00000E+00  9.000E+00
       2    -1     0     0   502     0  0.000000000E+00  0.000000000E+00 -2.401668045E+03  2.401668045E+03  0.000000000E+00  0.00000E+00  9.000E+00
      25     1     1     2     0     0 -4.079167290E+01  1.306421849E+01 -7.310424827E+02  7.428879985E+02  1.249993297E+02  0.00000E+00  9.000E+00
       5     1     1     2   501     0  2.582594213E+00  4.208218106E-01  5.790790654E+00  7.933639786E+00  4.750000000E+00  0.00000E+00  9.000E+00
      -5     1     1     2     0   503  3.916488423E+01 -3.312555356E+00 -3.464859933E+02  3.487405443E+02  4.750000000E+00  0.00000E+00  9.000E+00
       2     1     1     2   503     0 -9.558055350E-01 -1.017248495E+01 -1.315998280E+03  1.316037942E+03  1.525878906E-05  0.00000E+00  9.000E+00
#rwgt            1           9  0.86922698504373552                4     1303944           0
</event>
<event>
      6   9999  3.45752E-01  2.20598E+01 -1.00000E+00  1.57027E-01
      21    -1     0     0   501   502  0.000000000E+00  0.000000000E+00  2.098425772E+02  2.098425772E+02  0.000000000E+00  0.00000E+00  9.000E+00
      21    -1     0     0   511   503  0.000000000E+00  0.000000000E+00 -6.965308949E+02  6.965308949E+02  0.000000000E+00  0.00000E+00  9.000E+00
      25     1     1     2     0     0 -7.595668340E+00 -9.399794862E+01 -7.427960486E+01  1.733073635E+02  1.249986961E+02  0.00000E+00  9.000E+00
       5     1     1     2   501     0 -1.897119875E-01  3.181715953E+00  1.497164490E+02  1.498256884E+02  4.750000000E+00  0.00000E+00  9.000E+00
      -5     1     1     2     0   503 -1.309152979E+01  8.368948578E+01 -1.652845593E+02  1.857871530E+02  4.750000000E+00  0.00000E+00  9.000E+00
      21     1     1     2   511   502  2.087691012E+01  7.126746890E+00 -3.968406025E+02  3.974532673E+02  0.000000000E+00  0.00000E+00  9.000E+00
#rwgt            1           9  0.45241802477230975                4     1306810           0
</event>
<event>
      6   9999  3.45752E-01  3.27967E+01 -1.00000E+00  1.45377E-01
      21    -1     0     0   501   502  0.000000000E+00  0.000000000E+00  7.259038770E+01  7.259038770E+01  0.000000000E+00  0.00000E+00  9.000E+00
      21    -1     0     0   512   503  0.000000000E+00  0.000000000E+00 -1.026208338E+03  1.026208338E+03  0.000000000E+00  0.00000E+00  9.000E+00
      25     1     1     2     0     0  6.599993449E+00 -1.280853604E+01 -5.692516976E+01  1.381049184E+02  1.249995001E+02  0.00000E+00  9.000E+00
       5     1     1     2   501     0  1.045141965E+00 -7.094914150E+00  2.925410716E+01  3.049254686E+01  4.750000000E+00  0.00000E+00  9.000E+00
      -5     1     1     2     0   503  3.315128696E+00 -1.100760816E+01 -1.929794643E+01  2.295932822E+01  4.750000000E+00  0.00000E+00  9.000E+00
      21     1     1     2   512   502 -1.096026411E+01  3.091105836E+01 -9.066489414E+02  9.072419324E+02  1.868812365E-05  0.00000E+00  9.000E+00
#rwgt            1           9   5.1955510941280834E-004           4     1309229           0
</event>
<event>
      6   9999  3.45752E-01  6.18712E+00 -1.00000E+00  2.12217E-01
      21    -1     0     0   501   511  0.000000000E+00  0.000000000E+00  1.289802683E+01  1.289802683E+01  0.000000000E+00  0.00000E+00  9.000E+00
      21    -1     0     0   502   503  0.000000000E+00  0.000000000E+00 -7.985984926E+02  7.985984926E+02  0.000000000E+00  0.00000E+00  9.000E+00
      25     1     1     2     0     0  8.979668018E+00  1.508562621E+01 -6.263920240E+02  6.389836035E+02  1.249994692E+02  0.00000E+00  9.000E+00
       5     1     1     2   501     0 -2.832722642E-02  5.540844219E-01  6.191327387E-01  4.822202539E+00  4.750000000E+00  0.00000E+00  9.000E+00
      -5     1     1     2     0   503 -1.446191149E+01 -1.282651447E+01 -1.602630527E+02  1.614945043E+02  4.750000000E+00  0.00000E+00  9.000E+00
      21     1     1     2   502   511  5.510570698E+00 -2.813196158E+00  3.354781196E-01  6.196209132E+00  3.216934312E-07  0.00000E+00  9.000E+00
#rwgt            1           9   3.0669599120978319E-003           4     1310837           0
</event>
<event>
      6   9999  3.45752E-01  3.72515E+01 -1.00000E+00  1.42003E-01
      21    -1     0     0   512   502  0.000000000E+00  0.000000000E+00  5.301275808E+01  5.301275808E+01  0.000000000E+00  0.00000E+00  9.000E+00
      21    -1     0     0   502   503  0.000000000E+00  0.000000000E+00 -1.336084482E+03  1.336084482E+03  0.000000000E+00  0.00000E+00  9.000E+00
      25     1     1     2     0     0  5.303013252E+01  5.841936997E+01 -6.147694861E+02  6.322895699E+02  1.249942453E+02  0.00000E+00  9.000E+00
       5     1     1     2   501     0  7.362935153E+00 -1.863926054E+00  3.510504476E+01  3.623001107E+01  4.750000000E+00  0.00000E+00  9.000E+00
      -5     1     1     2     0   503 -2.606601970E+01 -4.208733617E+01 -6.657619221E+02  6.676168667E+02  4.750000000E+00  0.00000E+00  9.000E+00
      21     1     1     2   512   501 -3.432704798E+01 -1.446810774E+01 -3.764536011E+01  5.296079212E+01  4.768371582E-07  0.00000E+00  9.000E+00
#rwgt            1           9   2.2312011885603395E-005           4     1314549           0
</event>
<event>
      6   9999  3.45752E-01  4.21482E+01 -1.00000E+00  1.38881E-01
      21    -1     0     0   511   502  0.000000000E+00  0.000000000E+00  9.858085572E+02  9.858085572E+02  0.000000000E+00  0.00000E+00  9.000E+00
      21    -1     0     0   502   503  0.000000000E+00  0.000000000E+00 -1.418936129E+03  1.418936129E+03  0.000000000E+00  0.00000E+00  9.000E+00
      25     1     1     2     0     0  5.493114841E+02 -2.509969151E+02 -1.191952576E+03  1.342057507E+03  1.249994056E+02  0.00000E+00  9.000E+00
       5     1     1     2   501     0 -3.720890500E+00  3.953823687E+00  3.201456811E+02  3.202269467E+02  4.750000000E+00  0.00000E+00  9.000E+00
      -5     1     1     2     0   503 -5.068233022E+02  2.305031318E+02  4.051007833E+02  6.885715363E+02  4.750000000E+00  0.00000E+00  9.000E+00
      21     1     1     2   511   501 -3.876729136E+01  1.653995955E+01  3.357854023E+01  5.388869552E+01  1.168007728E-06  0.00000E+00  9.000E+00
#rwgt            1           9   6.0484964640713010E-005           4     1315972           0
</event>
<event>
      6   9999  3.45752E-01  1.12127E+01 -1.00000E+00  1.82105E-01
      21    -1     0     0   512   503  0.000000000E+00  0.000000000E+00  1.997680153E+01  1.997680153E+01  0.000000000E+00  0.00000E+00  9.000E+00
      21    -1     0     0   501   502  0.000000000E+00  0.000000000E+00 -9.166847207E+02  9.166847207E+02  0.000000000E+00  0.00000E+00  9.000E+00
      25     1     1     2     0     0 -1.196006676E+01 -3.025069676E+01 -8.822738479E+02  8.916783846E+02  1.250002041E+02  0.00000E+00  9.000E+00
       5     1     1     2   501     0 -2.006720473E-01 -3.624210769E-01 -9.972217766E+00  1.105347210E+01  4.750000000E+00  0.00000E+00  9.000E+00
      -5     1     1     2     0   503  8.895121240E+00  1.988648324E+01 -4.344429918E+00  2.271633705E+01  4.750000000E+00  0.00000E+00  9.000E+00
      21     1     1     2   512   502  3.265617572E+00  1.072663459E+01 -1.174236172E-01  1.121332850E+01  2.613915713E-07  0.00000E+00  9.000E+00
#rwgt            1           9   4.6104012724612811E-005           4     1318820           0
</event>
<event>
      6   9999  3.45752E-01  1.20221E+01 -1.00000E+00  1.79145E-01
      21    -1     0     0   501   502  0.000000000E+00  0.000000000E+00  1.342171736E+01  1.342171736E+01  0.000000000E+00  0.00000E+00  9.000E+00
      21    -1     0     0   502   511  0.000000000E+00  0.000000000E+00 -1.545093971E+03  1.545093971E+03  0.000000000E+00  0.00000E+00  9.000E+00
      25     1     1     2     0     0 -4.344178963E+01  1.445849948E+01 -6.482538142E+02  6.617811442E+02  1.250001516E+02  0.00000E+00  9.000E+00
       5     1     1     2   501     0  2.504796801E+00  3.450556679E+00  4.182462776E+00  7.631241267E+00  4.750000000E+00  0.00000E+00  9.000E+00
      -5     1     1     2     0   503  3.871385540E+01 -6.094322147E+00 -7.090440506E+02  7.101421911E+02  4.750000000E+00  0.00000E+00  9.000E+00
      21     1     1     2   503   511  2.223137426E+00 -1.181473401E+01 -1.785568518E+02  1.789611120E+02  1.907348633E-06  0.00000E+00  9.000E+00
#rwgt            1           9   1.6103836585423539                4     1321935           0
</event>
<event>
      6   9999  3.45752E-01  7.20101E+00 -1.00000E+00  2.03584E-01
      21    -1     0     0   501   502  0.000000000E+00  0.000000000E+00  9.532941805E+01  9.532941805E+01  0.000000000E+00  0.00000E+00  9.000E+00
      21    -1     0     0   512   503  0.000000000E+00  0.000000000E+00 -1.092129242E+02  1.092129242E+02  0.000000000E+00  0.00000E+00  9.000E+00
      25     1     1     2     0     0  6.510164254E+00  2.765611886E+00 -5.715400145E+01  1.376271579E+02  1.249984954E+02  0.00000E+00  9.000E+00
       5     1     1     2   501     0  1.935707686E+00 -3.298911726E+00  5.065521314E+01  5.102100451E+01  4.750000000E+00  0.00000E+00  9.000E+00
      -5     1     1     2     0   503 -1.530669069E+00 -1.475326221E+00  4.855851927E-01  5.226645983E+00  4.750000000E+00  0.00000E+00  9.000E+00
      21     1     1     2   512   502 -6.915202872E+00  2.008626061E+00 -7.870303016E+00  1.066753387E+01  1.192092896E-07  0.00000E+00  9.000E+00
#rwgt            1           9   5.6925921305702100E-002           4     1324194           0
</event>
<event>
      6   9999  3.45752E-01  1.52790E+01 -1.00000E+00  1.69681E-01
      21    -1     0     0   501   502  0.000000000E+00  0.000000000E+00  4.230839768E+02  4.230839768E+02  0.000000000E+00  0.00000E+00  9.000E+00
      21    -1     0     0   502   511  0.000000000E+00  0.000000000E+00 -6.016804406E+02  6.016804406E+02  0.000000000E+00  0.00000E+00  9.000E+00
      25     1     1     2     0     0 -3.783529026E+01  5.244127854E+01 -2.115058265E+02  2.540455675E+02  1.249913551E+02  0.00000E+00  9.000E+00
       5     1     1     2   501     0 -1.202412086E+01 -6.010288699E+00  3.776840255E+02  3.779530244E+02  4.750000000E+00  0.00000E+00  9.000E+00
      -5     1     1     2     0   503  3.619486204E+01 -3.959530819E+01 -6.613980589E+00  5.426014843E+01  4.750000000E+00  0.00000E+00  9.000E+00
      21     1     1     2   503   511  1.366454908E+01 -6.835681649E+00 -3.381606822E+02  3.385056771E+02  3.814697266E-06  0.00000E+00  9.000E+00
#rwgt            1           9   1.7497039562536446E-004           4     1327135           0
</event>
<event>
      6   9999 -3.45752E-01  1.31195E+01 -1.00000E+00  1.75572E-01
      21    -1     0     0   501   502  0.000000000E+00  0.000000000E+00  2.218504081E+01  2.218504081E+01  0.000000000E+00  0.00000E+00  9.000E+00
      21    -1     0     0   512   503  0.000000000E+00  0.000000000E+00 -1.178928519E+03  1.178928519E+03  0.000000000E+00  0.00000E+00  9.000E+00
      25     1     1     2     0     0  4.470749604E+01  2.431560980E+01 -7.992920416E+02  8.106203854E+02  1.250904968E+02  0.00000E+00  9.000E+00
       5     1     1     2   501     0  1.174810174E+00  4.301366074E+00  6.287035011E+00  9.053796899E+00  4.750000000E+00  0.00000E+00  9.000E+00
      -5     1     1     2     0   503 -3.689046204E+01 -1.906360455E+01 -4.138293563E+01  5.881697943E+01  4.750000000E+00  0.00000E+00  9.000E+00
      21     1     1     2   512   502 -8.991844172E+00 -9.553371327E+00 -3.223555364E+02  3.226223985E+02  0.000000000E+00  0.00000E+00  9.000E+00
#rwgt            1           9  -4.5258958828577715E-003           4     1331308           0
</event>
<event>
      6   9999 -3.45752E-01  8.89987E+00 -1.00000E+00  1.92688E-01
      21    -1     0     0   501   502  0.000000000E+00  0.000000000E+00  8.940621743E+00  8.940621743E+00  0.000000000E+00  0.00000E+00  9.000E+00
       2    -1     0     0   502     0  0.000000000E+00  0.000000000E+00 -1.182225598E+03  1.182225598E+03  0.000000000E+00  0.00000E+00  9.000E+00
      25     1     1     2     0     0 -1.009530297E+01 -4.911130965E+00 -7.260583335E+02  7.368231533E+02  1.249864841E+02  0.00000E+00  9.000E+00
       5     1     1     2   501     0  3.991697551E-01  1.122403498E-01  1.408961344E-01  4.770145292E+00  4.750000000E+00  0.00000E+00  9.000E+00
      -5     1     1     2     0   503  1.039936093E+01 -4.073157253E+00 -3.385667005E+01  3.596628873E+01  4.750000000E+00  0.00000E+00  9.000E+00
       2     1     1     2   503     0 -7.032277108E-01  8.872047868E+00 -4.135108686E+02  4.136066322E+02  5.394796609E-06  0.00000E+00  9.000E+00
#rwgt            1           9  -6.6197835370419870E-003           4     1333768           0
</event>
<event>
      6   9999  3.45752E-01  5.75897E+01 -1.00000E+00  1.31584E-01
       2    -1     0     0   501     0  0.000000000E+00  0.000000000E+00  1.515705589E+03  1.515705589E+03  0.000000000E+00  0.00000E+00  9.000E+00
      21    -1     0     0   502   503  0.000000000E+00  0.000000000E+00 -6.157220184E+02  6.157220184E+02  0.000000000E+00  0.00000E+00  9.000E+00
      25     1     1     2     0     0  1.478895436E+01  4.466543750E+01 -5.624801351E+02  5.781235321E+02  1.250168052E+02  0.00000E+00  9.000E+00
       5     1     1     2   501     0  7.810509203E-03  2.100141989E+01  4.525658435E+01  5.011766779E+01  4.750000000E+00  0.00000E+00  9.000E+00
      -5     1     1     2     0   503 -3.518087355E+01 -1.180531554E+01 -3.416971528E+01  5.066745781E+01  4.750000000E+00  0.00000E+00  9.000E+00
       2     1     1     2   502     0  2.038410868E+01 -5.386154185E+01  1.451376837E+03  1.452518950E+03  0.000000000E+00  0.00000E+00  9.000E+00
#rwgt            1           9   2.9729940452822720E-002           4     1335981           0
</event>
<event>
      6   9999  3.45752E-01  1.80913E+01 -1.00000E+00  1.63608E-01
      21    -1     0     0   501   502  0.000000000E+00  0.000000000E+00  2.197491773E+01  2.197491773E+01  0.000000000E+00  0.00000E+00  9.000E+00
       2    -1     0     0   502     0  0.000000000E+00  0.000000000E+00 -1.209671284E+03  1.209671284E+03  0.000000000E+00  0.00000E+00  9.000E+00
      25     1     1     2     0     0  1.772103468E+01 -2.486646027E+01 -2.318399011E+02  2.651513007E+02  1.249923863E+02  0.00000E+00  9.000E+00
       5     1     1     2   501     0  7.381185172E-01 -6.006853722E-01  1.952703447E+00  5.223140110E+00  4.750000000E+00  0.00000E+00  9.000E+00
      -5     1     1     2     0   503 -1.776728393E+00  1.846767397E+01 -5.424445892E+01  5.752595561E+01  4.750000000E+00  0.00000E+00  9.000E+00
       2     1     1     2   503     0 -1.668242481E+01  6.999471680E+00 -9.035647096E+02  9.037458052E+02  0.000000000E+00  0.00000E+00  9.000E+00
#rwgt            1           9   2.8174011316437257E-002           4     1337297           0
</event>
<event>
      6   9999  3.45752E-01  2.46226E+01 -1.00000E+00  1.53610E-01
      21    -1     0     0   501   502  0.000000000E+00  0.000000000E+00  7.555274046E+00  7.555274046E+00  0.000000000E+00  0.00000E+00  9.000E+00
      21    -1     0     0   502   511  0.000000000E+00  0.000000000E+00 -1.758885652E+03  1.758885652E+03  0.000000000E+00  0.00000E+00  9.000E+00
      25     1     1     2     0     0 -7.168601173E+00 -7.849748773E+00 -5.725298128E+02  5.861129542E+02  1.250000046E+02  0.00000E+00  9.000E+00
       5     1     1     2   501     0 -7.759657750E-01 -1.164766617E+01 -8.556252853E+01  8.648571581E+01  4.750000000E+00  0.00000E+00  9.000E+00
      -5     1     1     2     0   503 -1.336576197E+00 -3.309050153E+00 -5.643358170E+01  5.674546583E+01  4.750000000E+00  0.00000E+00  9.000E+00
      21     1     1     2   503   511  9.281143145E+00  2.280646510E+01 -1.036804455E+03  1.037096790E+03  2.157918644E-05  0.00000E+00  9.000E+00
#rwgt            1           9   1.0803860949153423E-002           4     1339033           0
</event>
<event>
      6   9999  3.45752E-01  4.25081E+01 -1.00000E+00  1.38671E-01
      -3    -1     0     0     0   503  0.000000000E+00  0.000000000E+00  1.038299066E+03  1.038299066E+03  0.000000000E+00  0.00000E+00  9.000E+00
      21    -1     0     0   501   502  0.000000000E+00  0.000000000E+00 -1.550488712E+03  1.550488712E+03  0.000000000E+00  0.00000E+00  9.000E+00
      25     1     1     2     0     0  6.635768381E+00  1.749312736E+02 -1.344214487E+03  1.361316696E+03  1.250023037E+02  0.00000E+00  9.000E+00
       5     1     1     2   501     0 -6.958721599E+00  1.529751781E+01 -8.874391031E+01  9.044601691E+01  4.750000000E+00  0.00000E+00  9.000E+00
      -5     1     1     2     0   503 -3.528856115E+01 -1.670175948E+02 -3.993753558E+01  1.753788151E+02  4.750000000E+00  0.00000E+00  9.000E+00
      -3     1     1     2     0   502  3.561151437E+01 -2.321119654E+01  9.607062870E+02  9.616462497E+02  1.078959322E-05  0.00000E+00  9.000E+00
#rwgt            1           9   16.835443998852078                4     1340380           0
</event>
<event>
      6   9999  3.45752E-01  1.03630E+01 -1.00000E+00  1.85577E-01
      21    -1     0     0   501   511  0.000000000E+00  0.000000000E+00  1.378223782E+03  1.378223782E+03  0.000000000E+00  0.00000E+00  9.000E+00
      21    -1     0     0   502   503  0.000000000E+00  0.000000000E+00 -2.864177823E+01  2.864177823E+01  0.000000000E+00  0.00000E+00  9.000E+00
      25     1     1     2     0     0  9.478522619E+00  3.963690285E+00  1.157197299E+02  1.706500449E+02  1.249993148E+02  0.00000E+00  9.000E+00
       5     1     1     2   501     0 -3.290927406E+00 -7.771436658E+00  1.172009742E+03  1.172049753E+03  4.750000000E+00  0.00000E+00  9.000E+00
      -5     1     1     2     0   503  1.394864180E+00 -3.256114218E+00  1.397069244E+01  1.517533107E+01  4.750000000E+00  0.00000E+00  9.000E+00
      21     1     1     2   502   511 -7.582459393E+00  7.063860591E+00  4.788183974E+01  4.899043166E+01  6.743495762E-07  0.00000E+00  9.000E+00
#rwgt            1           9   5.8767572593164136E-004           4     1342612           0
</event>
<event>
      6   9999  3.45752E-01  1.91579E+01 -1.00000E+00  1.61650E-01
      21    -1     0     0   512   502  0.000000000E+00  0.000000000E+00  2.897293936E+01  2.897293936E+01  0.000000000E+00  0.00000E+00  9.000E+00
      21    -1     0     0   502   503  0.000000000E+00  0.000000000E+00 -9.347859167E+02  9.347859167E+02  0.000000000E+00  0.00000E+00  9.000E+00
      25     1     1     2     0     0 -1.324213232E+01  3.668026034E+00 -8.920967311E+02  9.009181335E+02  1.250123882E+02  0.00000E+00  9.000E+00
       5     1     1     2   501     0 -4.500619464E+00  1.978017700E+00  6.028984656E+00  9.114783901E+00  4.750000000E+00  0.00000E+00  9.000E+00
      -5     1     1     2     0   503 -4.255315540E-01  4.316194876E-01 -3.109292231E+01  3.145949284E+01  4.750000000E+00  0.00000E+00  9.000E+00
      21     1     1     2   512   501  1.816828333E+01 -6.077663221E+00  1.134769138E+01  2.226644581E+01  5.057621821E-07  0.00000E+00  9.000E+00
#rwgt            1           9   1.0955586544246531E-004           4     1346079           0
</event>
<event>
      6   9999 -3.45752E-01  7.75307E+00 -1.00000E+00  1.99641E-01
      21    -1     0     0   501   502  0.000000000E+00  0.000000000E+00  3.989617682E+01  3.989617682E+01  0.000000000E+00  0.00000E+00  9.000E+00
      21    -1     0     0   511   503  0.000000000E+00  0.000000000E+00 -1.188704828E+03  1.188704828E+03  0.000000000E+00  0.00000E+00  9.000E+00
      25     1     1     2     0     0  3.258033558E+00  1.031688160E+02 -2.955619042E+02  3.371001392E+02  1.250009810E+02  0.00000E+00  9.000E+00
       5     1     1     2   501     0  3.612354419E+00  4.441191601E+00  1.467682586E+01  1.645433088E+01  4.750000000E+00  0.00000E+00  9.000E+00
      -5     1     1     2     0   503 -4.932089356E+00 -1.001031330E+02 -8.428591615E+02  8.488103977E+02  4.750000000E+00  0.00000E+00  9.000E+00
      21     1     1     2   511   502 -1.938298622E+00 -7.506874579E+00 -2.506441097E+01  2.623613662E+01  0.000000000E+00  0.00000E+00  9.000E+00
#rwgt            1           9 -0.35921144353085188                4     1347967           0
</event>
<event>
      6   9999  3.45752E-01  7.51436E+00 -1.00000E+00  2.01291E-01
      21    -1     0     0   512   502  0.000000000E+00  0.000000000E+00  1.449417258E+01  1.449417258E+01  0.000000000E+00  0.00000E+00  9.000E+00
      21    -1     0     0   502   503  0.000000000E+00  0.000000000E+00 -8.141548415E+02  8.141548415E+02  0.000000000E+00  0.00000E+00  9.000E+00
      25     1     1     2     0     0  4.727744561E+00 -2.843343219E-01 -7.413636885E+02  7.518629919E+02  1.251215709E+02  0.00000E+00  9.000E+00
       5     1     1     2   501     0  2.037988999E-01 -1.519993903E-02 -2.347570951E+00  5.302391385E+00  4.750000000E+00  0.00000E+00  9.000E+00
      -5     1     1     2     0   503  2.576622380E+00  6.046181698E-01 -6.175119731E+01  6.199013966E+01  4.750000000E+00  0.00000E+00  9.000E+00
      21     1     1     2   512   501 -7.508165842E+00 -3.050839089E-01  5.801787903E+00  9.493491105E+00  4.616955931E-07  0.00000E+00  9.000E+00
#rwgt            1           9   1.0842817512909504                4     1352952           0
</event>
<event>
      6   9999  3.45752E-01  1.93252E+01 -1.00000E+00  1.61357E-01
       1    -1     0     0   501     0  0.000000000E+00  0.000000000E+00  3.782224727E+02  3.782224727E+02  0.000000000E+00  0.00000E+00  9.000E+00
      21    -1     0     0   502   503  0.000000000E+00  0.000000000E+00 -6.775351297E+02  6.775351297E+02  0.000000000E+00  0.00000E+00  9.000E+00
      25     1     1     2     0     0  9.283199644E+00  3.197405629E+01 -5.867163925E+02  6.008073105E+02  1.249991242E+02  0.00000E+00  9.000E+00
       5     1     1     2   501     0 -5.110400145E+00 -9.003346020E+00 -6.264055437E+01  6.366771537E+01  4.750000000E+00  0.00000E+00  9.000E+00
      -5     1     1     2     0   503 -3.574093309E+00 -3.654821862E+00 -1.976913304E+01  2.096456504E+01  4.750000000E+00  0.00000E+00  9.000E+00
       1     1     1     2   502     0 -5.987061902E-01 -1.931588841E+01  3.698134228E+02  3.703180115E+02  7.629394531E-06  0.00000E+00  9.000E+00
#rwgt            1           9   5.9581436798412588E-004           4     1355510           0
</event>
<event>
      6   9999  3.45752E-01  6.94048E+00 -1.00000E+00  2.05612E-01
      21    -1     0     0   501   511  0.000000000E+00  0.000000000E+00  5.911116980E+01  5.911116980E+01  0.000000000E+00  0.00000E+00  9.000E+00
      21    -1     0     0   502   503  0.000000000E+00  0.000000000E+00 -1.836678862E+03  1.836678862E+03  0.000000000E+00  0.00000E+00  9.000E+00
      25     1     1     2     0     0  1.482128611E+02  3.417914572E+01 -4.621294296E+02  5.023177301E+02  1.249969043E+02  0.00000E+00  9.000E+00
       5     1     1     2   501     0 -1.191253800E+00  1.553329591E+00  7.524070559E+00  9.110765951E+00  4.750000000E+00  0.00000E+00  9.000E+00
      -5     1     1     2     0   503 -1.464637702E+02 -4.265050225E+01 -1.348902363E+03  1.357509060E+03  4.750000000E+00  0.00000E+00  9.000E+00
      21     1     1     2   502   511 -5.578370959E-01  6.918026936E+00  2.594002994E+01  2.685247535E+01  1.651812370E-06  0.00000E+00  9.000E+00
#rwgt            1           9   1.7150156558222977E-004           4     1356787           0
</event>
<event>
      6   9999  3.45752E-01  3.52803E+00 -1.00000E+00  2.59705E-01
      21    -1     0     0   501   502  0.000000000E+00  0.000000000E+00  1.385278000E+02  1.385278000E+02  0.000000000E+00  0.00000E+00  9.000E+00
      21    -1     0     0   502   512  0.000000000E+00  0.000000000E+00 -9.246828954E+01  9.246828954E+01  0.000000000E+00  0.00000E+00  9.000E+00
      25     1     1     2     0     0  5.912639982E+00 -2.729130533E+01 -2.931811467E+01  1.313918016E+02  1.249979161E+02  0.00000E+00  9.000E+00
       5     1     1     2   501     0  2.512233828E+00  1.159178186E+00  6.698443710E+01  6.720961484E+01  4.750000000E+00  0.00000E+00  9.000E+00
      -5     1     1     2     0   503 -4.914273730E+00  2.648235874E+01  9.044993527E+00  2.880694046E+01  4.750000000E+00  0.00000E+00  9.000E+00
      21     1     1     2   503   512 -3.510600079E+00 -3.502315967E-01 -6.518054948E-01  3.587732639E+00  1.290478414E-08  0.00000E+00  9.000E+00
#rwgt            1           9  0.20612016275746134                4     1361482           0
</event>
<event>
      6   9999  3.45752E-01  2.65625E+01 -1.00000E+00  1.51340E-01
      21    -1     0     0   501   502  0.000000000E+00  0.000000000E+00  1.676958410E+01  1.676958410E+01  0.000000000E+00  0.00000E+00  9.000E+00
      21    -1     0     0   511   503  0.000000000E+00  0.000000000E+00 -1.154477059E+03  1.154477059E+03  0.000000000E+00  0.00000E+00  9.000E+00
      25     1     1     2     0     0 -2.178043479E+01 -6.231226348E+00 -6.330760597E+02  6.456950862E+02  1.249945260E+02  0.00000E+00  9.000E+00
       5     1     1     2   501     0  1.677552624E+00 -7.693101101E+00  7.169996837E+00  1.166058927E+01  4.750000000E+00  0.00000E+00  9.000E+00
      -5     1     1     2     0   503  1.282003668E+01 -1.162031347E+01 -2.796121208E+02  2.801872332E+02  4.750000000E+00  0.00000E+00  9.000E+00
      21     1     1     2   511   502  7.282845491E+00  2.554464092E+01 -2.321892916E+02  2.337037348E+02  2.697398305E-06  0.00000E+00  9.000E+00
#rwgt            1           9   2.3883109406635034E-002           4     1366962           0
</event>
<event>
      6   9999  3.45752E-01  1.39455E+01 -1.00000E+00  1.73161E-01
      21    -1     0     0   512   502  0.000000000E+00  0.000000000E+00  1.840369483E+01  1.840369483E+01  0.000000000E+00  0.00000E+00  9.000E+00
      21    -1     0     0   502   503  0.000000000E+00  0.000000000E+00 -3.299374480E+02  3.299374480E+02  0.000000000E+00  0.00000E+00  9.000E+00
      25     1     1     2     0     0  2.794264598E+00 -5.827070144E+00 -2.774237833E+02  3.043556138E+02  1.250064857E+02  0.00000E+00  9.000E+00
       5     1     1     2   501     0  2.819921042E-01 -2.860221457E-01 -5.067669967E+00  6.957377890E+00  4.750000000E+00  0.00000E+00  9.000E+00
      -5     1     1     2     0   503  6.579188816E+00 -3.949187553E+00 -1.143228614E+01  1.456507721E+01  4.750000000E+00  0.00000E+00  9.000E+00
      21     1     1     2   512   501 -9.655445518E+00  1.006227984E+01 -1.761001373E+01  2.246307386E+01  3.371747881E-07  0.00000E+00  9.000E+00
#rwgt            1           9   1.0507852830717046E-003           4     1368230           0
</event>
<event>
      6   9999  3.45752E-01  6.52674E+01 -1.00000E+00  1.28874E-01
      21    -1     0     0   501   502  0.000000000E+00  0.000000000E+00  3.198468802E+01  3.198468802E+01  0.000000000E+00  0.00000E+00  9.000E+00
       2    -1     0     0   502     0  0.000000000E+00  0.000000000E+00 -2.746332799E+03  2.746332799E+03  0.000000000E+00  0.00000E+00  9.000E+00
      25     1     1     2     0     0  9.541363296E+01 -5.029826528E+01 -3.494967277E+02  3.865285327E+02  1.249906679E+02  0.00000E+00  9.000E+00
       5     1     1     2   501     0 -1.254258157E+02  8.521733772E+01 -5.373430250E+02  5.583491013E+02  4.750000000E+00  0.00000E+00  9.000E+00
      -5     1     1     2     0   503 -3.235047288E+01 -1.566478230E+01 -1.383727492E+02  1.430437651E+02  4.750000000E+00  0.00000E+00  9.000E+00
       2     1     1     2   503     0  6.236265562E+01 -1.925429014E+01 -1.689135609E+03  1.690396088E+03  0.000000000E+00  0.00000E+00  9.000E+00
#rwgt            1           9   1.7596879043220873E-004           4     1370439           0
</event>
<event>
      6   9999  3.45752E-01  3.43586E+01 -1.00000E+00  1.44125E-01
      21    -1     0     0   501   511  0.000000000E+00  0.000000000E+00  2.916751356E+01  2.916751356E+01  0.000000000E+00  0.00000E+00  9.000E+00
      21    -1     0     0   502   503  0.000000000E+00  0.000000000E+00 -1.016258471E+03  1.016258471E+03  0.000000000E+00  0.00000E+00  9.000E+00
      25     1     1     2     0     0  7.628484213E+01  4.932952014E+01 -5.718397166E+02  5.923471343E+02  1.249867490E+02  0.00000E+00  9.000E+00
       5     1     1     2   501     0 -1.729729142E+00  1.878184118E+00  1.753566908E-01  5.395626790E+00  4.750000000E+00  0.00000E+00  9.000E+00
      -5     1     1     2     0   503 -9.842557536E+01 -2.649506484E+01 -3.944339099E+02  4.074190154E+02  4.750000000E+00  0.00000E+00  9.000E+00
      21     1     1     2   502   511  2.387046237E+01 -2.471263942E+01 -2.099268789E+01  4.026420824E+01  7.152557373E-07  0.00000E+00  9.000E+00
#rwgt            1           9   5.2384480916271327E-004           4     1371864           0
</event>
<event>
      6   9999  3.45752E-01  7.35335E+00 -1.00000E+00  2.02450E-01
      21    -1     0     0   501   502  0.000000000E+00  0.000000000E+00  3.110133316E+01  3.110133316E+01  0.000000000E+00  0.00000E+00  9.000E+00
      21    -1     0     0   512   503  0.000000000E+00  0.000000000E+00 -1.122792451E+03  1.122792451E+03  0.000000000E+00  0.00000E+00  9.000E+00
      25     1     1     2     0     0 -7.963311843E+00  2.470743167E+00 -8.812184523E+02  8.900788785E+02  1.249997211E+02  0.00000E+00  9.000E+00
       5     1     1     2   501     0 -7.102123394E+00  2.939856265E+00  2.529814829E+01  2.686338993E+01  4.750000000E+00  0.00000E+00  9.000E+00
      -5     1     1     2     0   503  7.722729736E+00 -5.015135955E+00 -2.068898689E+02  2.071491552E+02  4.750000000E+00  0.00000E+00  9.000E+00
      21     1     1     2   512   502  7.342705501E+00 -3.954634775E-01 -2.888094453E+01  2.980236018E+01  0.000000000E+00  0.00000E+00  9.000E+00
#rwgt            1           9  0.44751195471961808                4     1373268           0
</event>
<event>
      6   9999  3.45752E-01  1.24616E+01 -1.00000E+00  1.77658E-01
      21    -1     0     0   511   502  0.000000000E+00  0.000000000E+00  2.213417650E+00  2.213417650E+00  0.000000000E+00  0.00000E+00  9.000E+00
      21    -1     0     0   502   503  0.000000000E+00  0.000000000E+00 -4.515477337E+03  4.515477337E+03  0.000000000E+00  0.00000E+00  9.000E+00
      25     1     1     2     0     0 -1.831801178E+01  2.302649136E+01 -3.038554728E+03  3.041266858E+03  1.249939934E+02  0.00000E+00  9.000E+00
       5     1     1     2   501     0  6.774900039E-01  1.249290487E+00 -1.092012917E+01  1.199297464E+01  4.750000000E+00  0.00000E+00  9.000E+00
      -5     1     1     2     0   503  2.335362684E+01 -1.320092349E+01 -1.236822118E+03  1.237122133E+03  4.750000000E+00  0.00000E+00  9.000E+00
      21     1     1     2   511   501 -5.713105065E+00 -1.107485835E+01 -2.269669445E+02  2.273087899E+02  3.814697266E-06  0.00000E+00  9.000E+00
#rwgt            1           9   1.0840532869277289E-004           4     1377323           0
</event>
<event>
      6   9999  3.45752E-01  6.46505E+00 -1.00000E+00  2.09639E-01
      21    -1     0     0   501   502  0.000000000E+00  0.000000000E+00  2.594169219E+02  2.594169219E+02  0.000000000E+00  0.00000E+00  9.000E+00
      21    -1     0     0   502   512  0.000000000E+00  0.000000000E+00 -2.896620616E+02  2.896620616E+02  0.000000000E+00  0.00000E+00  9.000E+00
      25     1     1     2     0     0  3.973378334E+00  4.847606782E+00  1.164330386E+02  1.709513672E+02  1.250137211E+02  0.00000E+00  9.000E+00
       5     1     1     2   501     0 -1.225727251E+00 -1.205368596E+00  1.144933199E+02  1.146047037E+02  4.750000000E+00  0.00000E+00  9.000E+00
      -5     1     1     2     0   503  2.761986977E+00 -7.024662279E+00 -1.641671562E+01  1.868275954E+01  4.750000000E+00  0.00000E+00  9.000E+00
      21     1     1     2   503   512 -5.509638061E+00  3.382424093E+00 -2.447547826E+02  2.448401529E+02  0.000000000E+00  0.00000E+00  9.000E+00
#rwgt            1           9   7.0648855477807773E-003           4     1379127           0
</event>
<event>
      6   9999  3.45752E-01  3.57304E+00 -1.00000E+00  2.58454E-01
      21    -1     0     0   501   502  0.000000000E+00  0.000000000E+00  1.463332454E+02  1.463332454E+02  0.000000000E+00  0.00000E+00  9.000E+00
      21    -1     0     0   511   503  0.000000000E+00  0.000000000E+00 -3.549020691E+02  3.549020691E+02  0.000000000E+00  0.00000E+00  9.000E+00
      25     1     1     2     0     0 -8.015116333E+00  4.867460738E+00  3.258748733E+01  1.295014716E+02  1.249830091E+02  0.00000E+00  9.000E+00
       5     1     1     2   501     0 -2.071057022E+00 -3.010304272E+00  6.494023891E+01  6.521616624E+01  4.750000000E+00  0.00000E+00  9.000E+00
      -5     1     1     2     0   503  1.100470621E+01  1.595797328E+00 -2.035000428E+02  2.038589710E+02  4.750000000E+00  0.00000E+00  9.000E+00
      21     1     1     2   511   502 -9.185328510E-01 -3.452953794E+00 -1.025965071E+02  1.026587057E+02  0.000000000E+00  0.00000E+00  9.000E+00
#rwgt            1           9   1.0072719054238257E-002           4     1383036           0
</event>
<event>
      6   9999  3.45752E-01  5.23852E+00 -1.00000E+00  2.22612E-01
      21    -1     0     0   501   502  0.000000000E+00  0.000000000E+00  1.268183928E+02  1.268183928E+02  0.000000000E+00  0.00000E+00  9.000E+00
      21    -1     0     0   512   503  0.000000000E+00  0.000000000E+00 -7.264290996E+01  7.264290996E+01  0.000000000E+00  0.00000E+00  9.000E+00
      25     1     1     2     0     0 -1.629557067E+00  4.393132408E+00  8.494310546E+01  1.512018779E+02  1.249988866E+02  0.00000E+00  9.000E+00
       5     1     1     2   501     0  7.265131213E-02  2.255876289E-01  4.883567757E+00  6.816736905E+00  4.750000000E+00  0.00000E+00  9.000E+00
      -5     1     1     2     0   503  1.886267979E+00  6.094327662E-01  2.579169886E-01  5.153487786E+00  4.750000000E+00  0.00000E+00  9.000E+00
      21     1     1     2   512   502 -3.293622244E-01 -5.228152804E+00 -3.590910735E+01  3.628920021E+01  4.768371582E-07  0.00000E+00  9.000E+00
#rwgt            1           9   3.8228889505768779E-004           4     1390150           0
</event>
<event>
      6   9999 -3.45752E-01  1.06906E+01 -1.00000E+00  1.84190E-01
      21    -1     0     0   501   502  0.000000000E+00  0.000000000E+00  2.428139548E+01  2.428139548E+01  0.000000000E+00  0.00000E+00  9.000E+00
      21    -1     0     0   502   511  0.000000000E+00  0.000000000E+00 -1.353206467E+03  1.353206467E+03  0.000000000E+00  0.00000E+00  9.000E+00
      25     1     1     2     0     0  1.139558232E+01 -2.839773569E+01 -9.288382058E+02  9.377122840E+02  1.250104969E+02  0.00000E+00  9.000E+00
       5     1     1     2   501     0  1.553970903E+00 -9.760596619E+00  1.641341449E+01  1.973947180E+01  4.750000000E+00  0.00000E+00  9.000E+00
      -5     1     1     2     0   503 -7.964949195E+00  2.870088115E+01 -1.348071183E+02  1.381401558E+02  4.750000000E+00  0.00000E+00  9.000E+00
      21     1     1     2   503   511 -4.984604026E+00  9.457451161E+00 -2.816931618E+02  2.818959507E+02  3.814697266E-06  0.00000E+00  9.000E+00
#rwgt            1           9  -3.3707821453879343E-002           4     1393397           0
</event>
<event>
      6   9999  3.45752E-01  2.57410E+01 -1.00000E+00  1.52272E-01
      21    -1     0     0   501   502  0.000000000E+00  0.000000000E+00  6.382494565E+01  6.382494565E+01  0.000000000E+00  0.00000E+00  9.000E+00
      21    -1     0     0   512   503  0.000000000E+00  0.000000000E+00 -4.509862745E+02  4.509862745E+02  0.000000000E+00  0.00000E+00  9.000E+00
      25     1     1     2     0     0 -1.373492218E+01  2.251659992E+01 -2.730232552E+02  3.014335938E+02  1.249994730E+02  0.00000E+00  9.000E+00
       5     1     1     2   501     0 -3.995575631E+00  3.631825020E+00  4.664985372E+01  4.720091238E+01  4.750000000E+00  0.00000E+00  9.000E+00
      -5     1     1     2     0   503  1.105049210E+01 -1.289257634E+00 -9.085531580E+01  9.165711358E+01  4.750000000E+00  0.00000E+00  9.000E+00
      21     1     1     2   512   502  6.680005705E+00 -2.485916731E+01 -6.993261158E+01  7.451960036E+01  1.651812370E-06  0.00000E+00  9.000E+00
#rwgt            1           9   1.0465305285762964E-003           4     1396276           0
</event>
<event>
      6   9999  3.45752E-01  6.93544E+00 -1.00000E+00  2.05653E-01
      21    -1     0     0   501   502  0.000000000E+00  0.000000000E+00  3.088768295E+01  3.088768295E+01  0.000000000E+00  0.00000E+00  9.000E+00
      21    -1     0     0   502   511  0.000000000E+00  0.000000000E+00 -6.397854163E+02  6.397854163E+02  0.000000000E+00  0.00000E+00  9.000E+00
      25     1     1     2     0     0 -5.903726978E+00  2.282258900E+00 -1.567586384E+02  2.005946942E+02  1.249995917E+02  0.00000E+00  9.000E+00
       5     1     1     2   501     0 -1.644088016E-01  6.124551421E-01  7.035496629E+00  8.512511050E+00  4.750000000E+00  0.00000E+00  9.000E+00
      -5     1     1     2     0   503 -8.575494752E-01 -3.262464346E+00 -6.088865240E+00  8.427089926E+00  4.750000000E+00  0.00000E+00  9.000E+00
      21     1     1     2   503   511  6.925685255E+00  3.677503043E-01 -4.530857263E+02  4.531388041E+02  0.000000000E+00  0.00000E+00  9.000E+00
#rwgt            1           9  0.32663022605918868                4     1398129           0
</event>
<event>
      6   9999 -3.45752E-01  9.04111E+00 -1.00000E+00  1.91926E-01
      21    -1     0     0   501   502  0.000000000E+00  0.000000000E+00  1.359617522E+01  1.359617522E+01  0.000000000E+00  0.00000E+00  9.000E+00
       1    -1     0     0   502     0  0.000000000E+00  0.000000000E+00 -1.986582699E+03  1.986582699E+03  0.000000000E+00  0.00000E+00  9.000E+00
      25     1     1     2     0     0  1.748101008E+01  4.785021484E+01 -1.214312517E+03  1.221791305E+03  1.249955015E+02  0.00000E+00  9.000E+00
       5     1     1     2   501     0 -3.744361642E-01  6.055375381E-01  2.371464375E+00  5.356605402E+00  4.750000000E+00  0.00000E+00  9.000E+00
      -5     1     1     2     0   503 -8.838841315E+00 -4.479701966E+01 -8.239848196E+01  9.432375319E+01  4.750000000E+00  0.00000E+00  9.000E+00
       1     1     1     2   503     0 -8.267732603E+00 -3.658732718E+00 -6.786469888E+02  6.787072101E+02  0.000000000E+00  0.00000E+00  9.000E+00
#rwgt            1           9  -1.5483043635810515E-005           4     1400912           0
</event>
<event>
      6   9999  3.45752E-01  6.51853E+00 -1.00000E+00  2.09163E-01
       2    -1     0     0   501     0  0.000000000E+00  0.000000000E+00  2.668992551E+03  2.668992551E+03  0.000000000E+00  0.00000E+00  9.000E+00
      21    -1     0     0   502   503  0.000000000E+00  0.000000000E+00 -1.155792413E+03  1.155792413E+03  0.000000000E+00  0.00000E+00  9.000E+00
      25     1     1     2     0     0 -3.044351394E+01 -9.711666515E+00 -9.968897463E+02  1.005204353E+03  1.250020016E+02  0.00000E+00  9.000E+00
       5     1     1     2   501     0  6.195352431E+00  5.087784757E+00  2.600839025E+01  2.762728378E+01  4.750000000E+00  0.00000E+00  9.000E+00
      -5     1     1     2     0   503  2.883924945E+01 -3.551118164E-03 -1.525444802E+02  1.553192946E+02  4.750000000E+00  0.00000E+00  9.000E+00
       2     1     1     2   502     0 -4.591087946E+00  4.627432876E+00  2.636625974E+03  2.636634032E+03  5.285799584E-05  0.00000E+00  9.000E+00
#rwgt            1           9   2.2446307496215524E-005           4     1403954           0
</event>
<event>
      6   9999  3.45752E-01  9.04157E+00 -1.00000E+00  1.91924E-01
      21    -1     0     0   501   502  0.000000000E+00  0.000000000E+00  4.002895583E+01  4.002895583E+01  0.000000000E+00  0.00000E+00  9.000E+00
       1    -1     0     0   502     0  0.000000000E+00  0.000000000E+00 -1.643676197E+03  1.643676197E+03  0.000000000E+00  0.00000E+00  9.000E+00
      25     1     1     2     0     0 -1.903701145E+01  1.728436136E+01 -1.124817634E+02  1.701127614E+02  1.250001901E+02  0.00000E+00  9.000E+00
       5     1     1     2   501     0 -4.009822813E+00  1.833303671E+00  1.009698865E+01  1.199797321E+01  4.750000000E+00  0.00000E+00  9.000E+00
      -5     1     1     2     0   503  1.433534974E+01 -1.669691579E+01 -1.093200053E+03  1.093431849E+03  4.750000000E+00  0.00000E+00  9.000E+00
       1     1     1     2   503     0  8.711484526E+00 -2.420749235E+00 -4.080624134E+02  4.081625696E+02  5.394796609E-06  0.00000E+00  9.000E+00
#rwgt            1           9   4.0522941082586384E-004           4     1408947           0
</event>
<event>
      6   9999 -3.45752E-01  2.07096E+01 -1.00000E+00  1.59063E-01
      21    -1     0     0   511   502  0.000000000E+00  0.000000000E+00  2.486465291E+01  2.486465291E+01  0.000000000E+00  0.00000E+00  9.000E+00
      21    -1     0     0   502   503  0.000000000E+00  0.000000000E+00 -1.090101488E+03  1.090101488E+03  0.000000000E+00  0.00000E+00  9.000E+00
      25     1     1     2     0     0 -3.266912986E+01  4.331045222E+01 -4.494799141E+02  4.696769470E+02  1.249846953E+02  0.00000E+00  9.000E+00
       5     1     1     2   501     0  2.557518779E+00  2.870319136E+00  1.116896810E+01  1.273137788E+01  4.750000000E+00  0.00000E+00  9.000E+00
      -5     1     1     2     0   503  2.698775273E+01 -2.570809717E+01 -5.805886846E+02  5.818032556E+02  4.750000000E+00  0.00000E+00  9.000E+00
      21     1     1     2   511   501  3.123858353E+00 -2.047267419E+01 -4.633720412E+01  5.075456004E+01  9.536743164E-07  0.00000E+00  9.000E+00
#rwgt            1           9  -8.8668600481853713E-003           4     1413169           0
</event>
<event>
      6   9999  3.45752E-01  1.05274E+01 -1.00000E+00  1.84873E-01
       2    -1     0     0   502     0  0.000000000E+00  0.000000000E+00  1.732706564E+03  1.732706564E+03  0.000000000E+00  0.00000E+00  9.000E+00
      21    -1     0     0   501   502  0.000000000E+00  0.000000000E+00 -3.239498498E+01  3.239498498E+01  0.000000000E+00  0.00000E+00  9.000E+00
      25     1     1     2     0     0 -7.361741933E+00  4.154590474E+00  9.587908821E+01  1.577630842E+02  1.249997412E+02  0.00000E+00  9.000E+00
       5     1     1     2   501     0 -2.998925903E-01  4.192976923E-01  8.586538387E+00  9.826336428E+00  4.750000000E+00  0.00000E+00  9.000E+00
      -5     1     1     2     0   503 -2.901543465E-01  2.325084802E+00  7.782717879E+00  9.414000556E+00  4.750000000E+00  0.00000E+00  9.000E+00
       2     1     1     2   503     0  7.951788869E+00 -6.898972968E+00  1.588063234E+03  1.588098128E+03  2.157918644E-05  0.00000E+00  9.000E+00
#rwgt            1           9   1.6525081113920708E-004           4     1415409           0
</event>
<event>
      6   9999  3.45752E-01  2.28325E+01 -1.00000E+00  1.55940E-01
      21    -1     0     0   501   502  0.000000000E+00  0.000000000E+00  2.039361043E+02  2.039361043E+02  0.000000000E+00  0.00000E+00  9.000E+00
      21    -1     0     0   511   503  0.000000000E+00  0.000000000E+00 -6.209268493E+01  6.209268493E+01  0.000000000E+00  0.00000E+00  9.000E+00
      25     1     1     2     0     0  5.275518297E+01  4.133555186E+01  1.134791957E+02  1.816366086E+02  1.249903699E+02  0.00000E+00  9.000E+00
       5     1     1     2   501     0 -2.926494468E+01 -2.321750803E+01  2.002600627E+01  4.265082758E+01  4.750000000E+00  0.00000E+00  9.000E+00
      -5     1     1     2     0   503 -6.907711897E-01 -1.689062888E+01  6.890632877E+00  1.886302813E+01  4.750000000E+00  0.00000E+00  9.000E+00
      21     1     1     2   511   502 -2.279946710E+01 -1.227414957E+00  1.447584506E+00  2.287832486E+01  5.004660971E-07  0.00000E+00  9.000E+00
#rwgt            1           9   6.0553387138658123E-003           4     1417910           0
</event>
<event>
      6   9999  3.45752E-01  6.34503E+00 -1.00000E+00  2.10730E-01
      21    -1     0     0   501   512  0.000000000E+00  0.000000000E+00  3.086987273E+01  3.086987273E+01  0.000000000E+00  0.00000E+00  9.000E+00
      21    -1     0     0   502   503  0.000000000E+00  0.000000000E+00 -3.284914198E+03  3.284914198E+03  0.000000000E+00  0.00000E+00  9.000E+00
      25     1     1     2     0     0  1.604195164E+01 -6.978329444E+00 -3.157745081E+03  3.160266707E+03  1.250024631E+02  0.00000E+00  9.000E+00
       5     1     1     2   501     0 -7.145535081E-01  7.512822237E-01 -5.758135578E+00  7.536155322E+00  4.750000000E+00  0.00000E+00  9.000E+00
      -5     1     1     2     0   503 -1.018549515E+01  9.944612668E+00 -1.184313440E+02  1.193783288E+02  4.750000000E+00  0.00000E+00  9.000E+00
      21     1     1     2   502   512 -5.141902975E+00 -3.717565448E+00  2.789023612E+01  2.860287975E+01  3.829569436E-06  0.00000E+00  9.000E+00
#rwgt            1           9   2.1311619383798707E-004           4     1419247           0
</event>
<event>
      6   9999  3.45752E-01  1.17532E+02 -1.00000E+00  1.17527E-01
      21    -1     0     0   501   502  0.000000000E+00  0.000000000E+00  8.520102933E+01  8.520102933E+01  0.000000000E+00  0.00000E+00  9.000E+00
      21    -1     0     0   511   503  0.000000000E+00  0.000000000E+00 -1.919205707E+03  1.919205707E+03  0.000000000E+00  0.00000E+00  9.000E+00
      25     1     1     2     0     0 -3.610084894E+02  1.837748367E+01 -7.487730115E+02  8.408048164E+02  1.250074206E+02  0.00000E+00  9.000E+00
       5     1     1     2   501     0 -4.730935943E+00 -1.520852091E+01  1.667439927E+00  1.670400308E+01  4.750000000E+00  0.00000E+00  9.000E+00
      -5     1     1     2     0   503  2.482444365E+02 -2.059961669E-01 -7.167586923E+02  7.585452710E+02  4.750000000E+00  0.00000E+00  9.000E+00
      21     1     1     2   511   502  1.174949889E+02 -2.962966589E+00 -3.701404136E+02  3.883526456E+02  0.000000000E+00  0.00000E+00  9.000E+00
#rwgt            1           9   1.2844189742478613E-005           4     1423047           0
</event>
<event>
      6   9999 -3.45752E-01  3.46329E+00 -1.00000E+00  2.61555E-01
      21    -1     0     0   501   512  0.000000000E+00  0.000000000E+00  9.380199192E+00  9.380199192E+00  0.000000000E+00  0.00000E+00  9.000E+00
      21    -1     0     0   502   503  0.000000000E+00  0.000000000E+00 -7.372160188E+02  7.372160188E+02  0.000000000E+00  0.00000E+00  9.000E+00
      25     1     1     2     0     0  6.430867871E+00 -7.527297475E+00 -6.540388455E+02  6.659499980E+02  1.249982887E+02  0.00000E+00  9.000E+00
       5     1     1     2   501     0 -1.159615497E-01  3.654884205E-01 -2.271147056E+00  5.278980755E+00  4.750000000E+00  0.00000E+00  9.000E+00
      -5     1     1     2     0   503 -8.043340094E+00  1.016295849E+01 -7.037762900E+01  7.171857646E+01  4.750000000E+00  0.00000E+00  9.000E+00
      21     1     1     2   502   512  1.728433772E+00 -3.001149440E+00 -1.148198065E+00  3.648662777E+00  2.475566823E-07  0.00000E+00  9.000E+00
#rwgt            1           9  -7.7863457359032644E-004           4     1424244           0
</event>
<event>
      6   9999  3.45752E-01  1.22377E+01 -1.00000E+00  1.78406E-01
      21    -1     0     0   501   511  0.000000000E+00  0.000000000E+00  1.107736431E+03  1.107736431E+03  0.000000000E+00  0.00000E+00  9.000E+00
      21    -1     0     0   502   503  0.000000000E+00  0.000000000E+00 -1.593719108E+03  1.593719108E+03  0.000000000E+00  0.00000E+00  9.000E+00
      25     1     1     2     0     0  6.998768526E+00 -3.297480943E+01 -2.767249165E+02  3.055137397E+02  1.250025796E+02  0.00000E+00  9.000E+00
       5     1     1     2   501     0  1.406677803E+01  1.228175543E+00  6.745463260E+01  6.908018977E+01  4.750000000E+00  0.00000E+00  9.000E+00
      -5     1     1     2     0   503 -1.355770811E+01  2.208264514E+01 -1.301617187E+03  1.301883758E+03  4.750000000E+00  0.00000E+00  9.000E+00
      21     1     1     2   502   511 -7.507838443E+00  9.663988744E+00  1.024904794E+03  1.024977852E+03  0.000000000E+00  0.00000E+00  9.000E+00
#rwgt            1           9   1.3025307666719554E-002           4     1428730           0
</event>
<event>
      6   9999  3.45752E-01  3.14230E+01 -1.00000E+00  1.46548E-01
      21    -1     0     0   502   503  0.000000000E+00  0.000000000E+00  5.925639522E+01  5.925639522E+01  0.000000000E+00  0.00000E+00  9.000E+00
      21    -1     0     0   512   502  0.000000000E+00  0.000000000E+00 -1.715617065E+03  1.715617065E+03  0.000000000E+00  0.00000E+00  9.000E+00
      25     1     1     2     0     0  1.345397925E+02 -2.273097158E+02 -5.358129139E+02  6.103206956E+02  1.250008404E+02  0.00000E+00  9.000E+00
       5     1     1     2   501     0 -1.138152310E+02  2.443269714E+02 -9.488258753E+02  9.863785682E+02  4.750000000E+00  0.00000E+00  9.000E+00
      -5     1     1     2     0   503  1.019858567E+01 -1.143499584E+01 -5.422686322E+01  5.654984946E+01  4.750000000E+00  0.00000E+00  9.000E+00
      21     1     1     2   512   501 -3.092314715E+01 -5.582259783E+00 -1.174950170E+02  1.216243466E+02  1.907348633E-06  0.00000E+00  9.000E+00
#rwgt            1           9   3.8014699890354082                4     1432626           0
</event>
<event>
      6   9999  3.45752E-01  1.26167E+01 -1.00000E+00  1.77152E-01
      21    -1     0     0   511   502  0.000000000E+00  0.000000000E+00  1.010663357E+01  1.010663357E+01  0.000000000E+00  0.00000E+00  9.000E+00
      21    -1     0     0   502   503  0.000000000E+00  0.000000000E+00 -8.210590053E+02  8.210590053E+02  0.000000000E+00  0.00000E+00  9.000E+00
      25     1     1     2     0     0  2.015167556E+00 -9.306494455E+00 -7.172682842E+02  7.281410302E+02  1.249995862E+02  0.00000E+00  9.000E+00
       5     1     1     2   501     0  8.431177825E-01 -3.661975562E+00  1.295251753E+00  6.193632998E+00  4.750000000E+00  0.00000E+00  9.000E+00
      -5     1     1     2     0   503 -1.257974278E+00  4.536484139E-01 -4.556303270E+01  4.582947463E+01  4.750000000E+00  0.00000E+00  9.000E+00
      21     1     1     2   511   501 -1.600311061E+00  1.251482160E+01 -4.941630662E+01  5.100150111E+01  1.168007728E-06  0.00000E+00  9.000E+00
#rwgt            1           9   3.4801107552609808E-004           4     1434589           0
</event>
<event>
      6   9999  3.45752E-01  4.99090E+00 -1.00000E+00  2.29501E-01
      21    -1     0     0   512   502  0.000000000E+00  0.000000000E+00  6.292221775E+01  6.292221775E+01  0.000000000E+00  0.00000E+00  9.000E+00
      21    -1     0     0   502   503  0.000000000E+00  0.000000000E+00 -5.835435758E+03  5.835435758E+03  0.000000000E+00  0.00000E+00  9.000E+00
      25     1     1     2     0     0  3.867321754E+00 -5.466815032E+00 -5.391435630E+03  5.392896985E+03  1.253590808E+02  0.00000E+00  9.000E+00
       5     1     1     2   501     0 -7.211404505E+00  1.270639027E+00 -6.088186104E+00  1.064177563E+01  4.750000000E+00  0.00000E+00  9.000E+00
      -5     1     1     2     0   503 -1.332919972E+00  5.938223876E+00 -4.347662054E+02  4.348347446E+02  4.750000000E+00  0.00000E+00  9.000E+00
      21     1     1     2   512   501  4.677002723E+00 -1.742047871E+00  5.977648077E+01  5.998447081E+01  1.118282261E-05  0.00000E+00  9.000E+00
#rwgt            1           9   6.0273640345178108E-004           4     1437146           0
</event>
<event>
      6   9999  3.45752E-01  2.66535E+01 -1.00000E+00  1.51239E-01
      21    -1     0     0   511   503  0.000000000E+00  0.000000000E+00  9.554313345E+01  9.554313345E+01  0.000000000E+00  0.00000E+00  9.000E+00
      21    -1     0     0   501   502  0.000000000E+00  0.000000000E+00 -6.122523332E+02  6.122523332E+02  0.000000000E+00  0.00000E+00  9.000E+00
      25     1     1     2     0     0 -1.179855592E+01  5.702699120E+01 -3.321450230E+02  3.596336020E+02  1.249989109E+02  0.00000E+00  9.000E+00
       5     1     1     2   501     0 -6.411001040E+00 -1.771247181E+01 -8.712176834E+01  8.926140045E+01  4.750000000E+00  0.00000E+00  9.000E+00
      -5     1     1     2     0   503  3.657393101E+01 -1.999718833E+01 -1.733995526E+02  1.784026550E+02  4.750000000E+00  0.00000E+00  9.000E+00
      21     1     1     2   511   502 -1.836437405E+01 -1.931733106E+01  7.595714426E+01  8.049780914E+01  9.536743164E-07  0.00000E+00  9.000E+00
#rwgt            1           9  0.54314508273471307                4     1440697           0
</event>
<event>
      6   9999  3.45752E-01  7.11987E+00 -1.00000E+00  2.04203E-01
      21    -1     0     0   502   503  0.000000000E+00  0.000000000E+00  1.369462741E+03  1.369462741E+03  0.000000000E+00  0.00000E+00  9.000E+00
      21    -1     0     0   501   512  0.000000000E+00  0.000000000E+00 -5.179485337E+00  5.179485337E+00  0.000000000E+00  0.00000E+00  9.000E+00
      25     1     1     2     0     0 -1.335858202E+00  1.427573657E+01  1.237712235E+03  1.244090742E+03  1.249984656E+02  0.00000E+00  9.000E+00
       5     1     1     2   501     0 -9.255321864E-01  3.075403696E-01  4.827146724E+00  6.842151445E+00  4.750000000E+00  0.00000E+00  9.000E+00
      -5     1     1     2     0   503 -4.637710699E+00 -1.282404468E+01  6.965451782E+01  7.113563689E+01  4.750000000E+00  0.00000E+00  9.000E+00
      21     1     1     2   502   512  6.899101087E+00 -1.759232267E+00  5.208935593E+01  5.257369584E+01  9.536743164E-07  0.00000E+00  9.000E+00
#rwgt            1           9   9.7343640755037653E-003           4     1442123           0
</event>
<event>
      6   9999  3.45752E-01  1.32338E+01 -1.00000E+00  1.75225E-01
      21    -1     0     0   501   511  0.000000000E+00  0.000000000E+00  1.314963284E+02  1.314963284E+02  0.000000000E+00  0.00000E+00  9.000E+00
      21    -1     0     0   502   503  0.000000000E+00  0.000000000E+00 -9.282410756E+02  9.282410756E+02  0.000000000E+00  0.00000E+00  9.000E+00
      25     1     1     2     0     0  8.785788905E-01  4.725464993E+00 -4.470553615E+02  4.642251544E+02  1.249935834E+02  0.00000E+00  9.000E+00
       5     1     1     2   501     0 -3.652862171E+00 -1.607472094E-01  6.632751397E+00  8.940085727E+00  4.750000000E+00  0.00000E+00  9.000E+00
      -5     1     1     2     0   503 -8.810090368E+00  1.833396970E+00 -4.710117065E+02  4.711216077E+02  4.750000000E+00  0.00000E+00  9.000E+00
      21     1     1     2   502   511  1.158437365E+01 -6.398114753E+00  1.146895694E+02  1.154505562E+02  1.348699152E-06  0.00000E+00  9.000E+00
#rwgt            1           9  0.12410847370407965                4     1445131           0
</event>
<event>
      6   9999  3.45752E-01  2.97625E+01 -1.00000E+00  1.48062E-01
      21    -1     0     0   501   502  0.000000000E+00  0.000000000E+00  7.503311713E+02  7.503311713E+02  0.000000000E+00  0.00000E+00  9.000E+00
      21    -1     0     0   502   512  0.000000000E+00  0.000000000E+00 -4.447994191E+02  4.447994191E+02  0.000000000E+00  0.00000E+00  9.000E+00
      25     1     1     2     0     0  4.235866153E+01 -3.683112720E+01  3.302694008E+02  3.575667271E+02  1.250011961E+02  0.00000E+00  9.000E+00
       5     1     1     2   501     0 -2.005764367E+00 -1.393707412E+00  3.881710304E+02  3.882077754E+02  4.750000000E+00  0.00000E+00  9.000E+00
      -5     1     1     2     0   503 -5.491382902E+01  1.226746485E+01 -2.751423057E+01  6.281412815E+01  4.750000000E+00  0.00000E+00  9.000E+00
      21     1     1     2   503   512  1.456093186E+01  2.595736976E+01 -3.853944485E+02  3.865419598E+02  5.394796609E-06  0.00000E+00  9.000E+00
#rwgt            1           9   5.8718571074355846E-004           4     1447518           0
</event>
<event>
      6   9999  3.45752E-01  2.54065E+01 -1.00000E+00  1.52664E-01
      21    -1     0     0   501   502  0.000000000E+00  0.000000000E+00  2.356641463E+01  2.356641463E+01  0.000000000E+00  0.00000E+00  9.000E+00
      21    -1     0     0   511   503  0.000000000E+00  0.000000000E+00 -1.679661667E+03  1.679661667E+03  0.000000000E+00  0.00000E+00  9.000E+00
      25     1     1     2     0     0 -1.581667512E+01  4.925617348E+01 -2.310395114E+02  2.677268387E+02  1.249882653E+02  0.00000E+00  9.000E+00
       5     1     1     2   501     0 -9.475148652E-01  1.014881884E-01  3.075315039E+00  5.738305225E+00  4.750000000E+00  0.00000E+00  9.000E+00
      -5     1     1     2     0   503 -7.209809907E+00 -4.094715121E+01 -7.628683042E+02  7.640152241E+02  4.750000000E+00  0.00000E+00  9.000E+00
      21     1     1     2   511   502  2.397399989E+01 -8.410510461E+00 -6.652627517E+02  6.657477136E+02  0.000000000E+00  0.00000E+00  9.000E+00
#rwgt            1           9   4.9673895615063692E-003           4     1450214           0
</event>
<event>
      6   9999  3.45752E-01  1.41103E+01 -1.00000E+00  1.72705E-01
       1    -1     0     0   501     0  0.000000000E+00  0.000000000E+00  1.142625648E+02  1.142625648E+02  0.000000000E+00  0.00000E+00  9.000E+00
      21    -1     0     0   502   503  0.000000000E+00  0.000000000E+00 -1.446960446E+03  1.446960446E+03  0.000000000E+00  0.00000E+00  9.000E+00
      25     1     1     2     0     0 -1.540240540E+01  9.507707471E-01 -1.408539907E+03  1.414159628E+03  1.249985897E+02  0.00000E+00  9.000E+00
       5     1     1     2   501     0 -6.297849873E-01 -9.405665478E-02 -9.745346012E+00  1.086000666E+01  4.750000000E+00  0.00000E+00  9.000E+00
      -5     1     1     2     0   503  2.032579902E+00  9.073495500E-01 -2.458128735E+01  2.513477376E+01  4.750000000E+00  0.00000E+00  9.000E+00
       1     1     1     2   502     0  1.399961048E+01 -1.764063642E+00  1.101686588E+02  1.110686022E+02  2.697398305E-06  0.00000E+00  9.000E+00
#rwgt            1           9   1.3223165437154266E-002           4     1451598           0
</event>
<event>
      6   9999  3.45752E-01  9.06145E+00 -1.00000E+00  1.91818E-01
      21    -1     0     0   501   511  0.000000000E+00  0.000000000E+00  2.278465067E+01  2.278465067E+01  0.000000000E+00  0.00000E+00  9.000E+00
      21    -1     0     0   502   503  0.000000000E+00  0.000000000E+00 -8.288454148E+02  8.288454148E+02  0.000000000E+00  0.00000E+00  9.000E+00
      25     1     1     2     0     0  5.690379727E-02 -4.978761931E+00 -7.333009546E+02  7.438949448E+02  1.249984305E+02  0.00000E+00  9.000E+00
       5     1     1     2   501     0 -8.139004271E-01  8.468307898E-01 -1.925750750E+00  5.258381143E+00  4.750000000E+00  0.00000E+00  9.000E+00
      -5     1     1     2     0   503 -8.304455375E+00  4.126405652E+00 -8.501329165E+01  8.564936345E+01  4.750000000E+00  0.00000E+00  9.000E+00
      21     1     1     2   502   511  9.061452005E+00  5.525489520E-03  1.417923281E+01  1.682737609E+01  1.608221240E-06  0.00000E+00  9.000E+00
#rwgt            1           9   6.1661285411895200E-004           4     1453058           0
</event>
<event>
      6   9999  3.45752E-01  1.63694E+01 -1.00000E+00  1.67148E-01
      21    -1     0     0   501   502  0.000000000E+00  0.000000000E+00  6.003492426E+01  6.003492426E+01  0.000000000E+00  0.00000E+00  9.000E+00
       2    -1     0     0   502     0  0.000000000E+00  0.000000000E+00 -6.439421513E+02  6.439421513E+02  0.000000000E+00  0.00000E+00  9.000E+00
      25     1     1     2     0     0  1.373638455E+01  1.447529845E+00 -3.568686571E+01  1.307288628E+02  1.250027983E+02  0.00000E+00  9.000E+00
       5     1     1     2   501     0  1.970968965E+00 -5.170355756E-01  9.863191044E+00  1.113539770E+01  4.750000000E+00  0.00000E+00  9.000E+00
      -5     1     1     2     0   503  6.582837978E-01 -1.280731127E+00 -1.356964785E+00  5.145625638E+00  4.750000000E+00  0.00000E+00  9.000E+00
       2     1     1     2   503     0 -1.636563731E+01  3.502368575E-01 -5.567265876E+02  5.569671895E+02  0.000000000E+00  0.00000E+00  9.000E+00
#rwgt            1           9   1.5191014837179039E-002           4     1455866           0
</event>
<event>
      6   9999  3.45752E-01  6.14781E+00 -1.00000E+00  2.12596E-01
      21    -1     0     0   511   502  0.000000000E+00  0.000000000E+00  1.003751305E+01  1.003751305E+01  0.000000000E+00  0.00000E+00  9.000E+00
      21    -1     0     0   502   503  0.000000000E+00  0.000000000E+00 -6.673740653E+02  6.673740653E+02  0.000000000E+00  0.00000E+00  9.000E+00
      25     1     1     2     0     0 -1.971161948E-01 -3.895149492E+00 -6.035191300E+02  6.163441844E+02  1.250184081E+02  0.00000E+00  9.000E+00
       5     1     1     2   501     0  2.834531132E-01 -8.648718930E-01 -3.698039326E+00  6.088213524E+00  4.750000000E+00  0.00000E+00  9.000E+00
      -5     1     1     2     0   503  2.519531021E+00 -8.081913148E-01 -4.824722069E+01  4.855263138E+01  4.750000000E+00  0.00000E+00  9.000E+00
      21     1     1     2   511   501 -2.605867939E+00  5.568212700E+00 -1.872162185E+00  6.426548968E+00  3.417535109E-07  0.00000E+00  9.000E+00
#rwgt            1           9   7.7444814617158152E-005           4     1457359           0
</event>
<event>
      6   9999  3.45752E-01  3.67315E+00 -1.00000E+00  2.55770E-01
      21    -1     0     0   501   512  0.000000000E+00  0.000000000E+00  3.775082161E+01  3.775082161E+01  0.000000000E+00  0.00000E+00  9.000E+00
      21    -1     0     0   502   503  0.000000000E+00  0.000000000E+00 -3.238677292E+02  3.238677292E+02  0.000000000E+00  0.00000E+00  9.000E+00
      25     1     1     2     0     0 -2.050405502E-01  1.451816369E+01 -2.841284287E+02  3.107505129E+02  1.250043924E+02  0.00000E+00  9.000E+00
       5     1     1     2   501     0 -1.873554925E+00 -2.387455835E+00  2.028323220E+01  2.105189213E+01  4.750000000E+00  0.00000E+00  9.000E+00
      -5     1     1     2     0   503  4.858150177E+00 -1.453197546E+01 -1.926327398E+01  2.506823005E+01  4.750000000E+00  0.00000E+00  9.000E+00
      21     1     1     2   502   512 -2.779554702E+00  2.401267599E+00 -3.008437071E+00  4.747915757E+00  1.115100797E-07  0.00000E+00  9.000E+00
#rwgt            1           9   1.4313139620958853E-004           4     1460054           0
</event>
<event>
      6   9999  3.45752E-01  6.60688E+00 -1.00000E+00  2.08390E-01
      21    -1     0     0   501   502  0.000000000E+00  0.000000000E+00  7.639559273E+01  7.639559273E+01  0.000000000E+00  0.00000E+00  9.000E+00
      21    -1     0     0   511   503  0.000000000E+00  0.000000000E+00 -3.251222147E+02  3.251222147E+02  0.000000000E+00  0.00000E+00  9.000E+00
      25     1     1     2     0     0 -9.304401666E+01  2.123520923E+01 -9.639602247E+01  1.844597973E+02  1.250004021E+02  0.00000E+00  9.000E+00
       5     1     1     2   501     0  1.724661666E-02 -1.601670957E+00  1.887822257E+01  1.953242009E+01  4.750000000E+00  0.00000E+00  9.000E+00
      -5     1     1     2     0   503  8.806915186E+01 -2.400078346E+01 -1.639649219E+02  1.877212594E+02  4.750000000E+00  0.00000E+00  9.000E+00
      21     1     1     2   511   502  4.957618184E+00  4.367245185E+00 -7.243900119E+00  9.804330548E+00  1.192092896E-07  0.00000E+00  9.000E+00
#rwgt            1           9   1.6744340204107475                4     1465619           0
</event>
<event>
      6   9999  3.45752E-01  2.65192E+01 -1.00000E+00  1.51388E-01
      21    -1     0     0   501   502  0.000000000E+00  0.000000000E+00  8.239040059E+01  8.239040059E+01  0.000000000E+00  0.00000E+00  9.000E+00
       2    -1     0     0   502     0  0.000000000E+00  0.000000000E+00 -2.155893155E+03  2.155893155E+03  0.000000000E+00  0.00000E+00  9.000E+00
      25     1     1     2     0     0 -1.495146835E+02  1.363978706E+02 -5.763024084E+02  6.234725722E+02  1.250382447E+02  0.00000E+00  9.000E+00
       5     1     1     2   501     0 -5.566792813E+00  1.898049148E+00  4.786091056E+01  4.845431902E+01  4.750000000E+00  0.00000E+00  9.000E+00
      -5     1     1     2     0   503  1.727767158E+02 -1.185438011E+02 -1.057186948E+03  1.077762141E+03  4.750000000E+00  0.00000E+00  9.000E+00
       2     1     1     2   503     0 -1.769523946E+01 -1.975211866E+01 -4.878743087E+02  4.885945239E+02  5.394796609E-06  0.00000E+00  9.000E+00
#rwgt            1           9   2.3810090429304532E-002           4     1469613           0
</event>
<event>
      6   9999  3.45752E-01  1.61684E+01 -1.00000E+00  1.67596E-01
      21    -1     0     0   502   503  0.000000000E+00  0.000000000E+00  1.403016001E+02  1.403016001E+02  0.000000000E+00  0.00000E+00  9.000E+00
      21    -1     0     0   511   502  0.000000000E+00  0.000000000E+00 -6.805546718E+01  6.805546718E+01  0.000000000E+00  0.00000E+00  9.000E+00
      25     1     1     2     0     0  3.198303050E+01 -2.275328058E+01  7.162953721E+01  1.493226032E+02  1.250032928E+02  0.00000E+00  9.000E+00
       5     1     1     2   501     0 -1.946631398E+01  2.255627671E+01  5.454448000E+00  3.066001471E+01  4.750000000E+00  0.00000E+00  9.000E+00
      -5     1     1     2     0   503  1.058959068E+00  8.978684139E+00  2.657986995E+00  1.055298811E+01  4.750000000E+00  0.00000E+00  9.000E+00
      21     1     1     2   511   501 -1.357567559E+01 -8.781680268E+00 -7.495839249E+00  1.782146128E+01  1.685873940E-07  0.00000E+00  9.000E+00
#rwgt            1           9   1.0117253116581424                4     1472182           0
</event>
<event>
      6   9999  3.45752E-01  7.99785E+00 -1.00000E+00  1.98029E-01
      21    -1     0     0   501   502  0.000000000E+00  0.000000000E+00  7.404739087E+00  7.404739087E+00  0.000000000E+00  0.00000E+00  9.000E+00
      21    -1     0     0   512   503  0.000000000E+00  0.000000000E+00 -7.126004727E+02  7.126004727E+02  0.000000000E+00  0.00000E+00  9.000E+00
      25     1     1     2     0     0 -5.042417165E+00 -2.343242156E+00 -6.298612480E+02  6.421662055E+02  1.249853072E+02  0.00000E+00  9.000E+00
       5     1     1     2   501     0  8.636447483E-01 -2.429780361E+00 -1.285015327E+01  1.394053994E+01  4.750000000E+00  0.00000E+00  9.000E+00
      -5     1     1     2     0   503  4.919817355E-01 -2.324382167E+00 -2.203437698E+01  2.266541567E+01  4.750000000E+00  0.00000E+00  9.000E+00
      21     1     1     2   512   502  3.686790681E+00  7.097404684E+00 -4.044995538E+01  4.123305068E+01  6.743495762E-07  0.00000E+00  9.000E+00
#rwgt            1           9   1.7770632542680293E-003           4     1474014           0
</event>
<event>
      6   9999 -3.45752E-01  2.54340E+01 -1.00000E+00  1.52631E-01
      21    -1     0     0   511   502  0.000000000E+00  0.000000000E+00  1.125003482E+01  1.125003482E+01  0.000000000E+00  0.00000E+00  9.000E+00
      21    -1     0     0   502   503  0.000000000E+00  0.000000000E+00 -8.680209876E+02  8.680209876E+02  0.000000000E+00  0.00000E+00  9.000E+00
      25     1     1     2     0     0  3.126539187E+01 -1.314731562E+01 -7.303229095E+02  7.417189633E+02  1.250003668E+02  0.00000E+00  9.000E+00
       5     1     1     2   501     0  2.833869023E+00 -4.331648664E-01 -1.011514391E+00  5.639512994E+00  4.750000000E+00  0.00000E+00  9.000E+00
      -5     1     1     2     0   503 -8.790802446E+00  1.105614496E+01 -3.691183360E+01  3.980656364E+01  4.750000000E+00  0.00000E+00  9.000E+00
      21     1     1     2   511   501 -2.530845844E+01  2.524335528E+00 -8.852469530E+01  9.210598252E+01  0.000000000E+00  0.00000E+00  9.000E+00
#rwgt            1           9  -1.3183742571647289E-003           4     1476494           0
</event>
<event>
      6   9999  3.45752E-01  1.05018E+01 -1.00000E+00  1.84981E-01
      21    -1     0     0   501   502  0.000000000E+00  0.000000000E+00  8.504875320E+00  8.504875320E+00  0.000000000E+00  0.00000E+00  9.000E+00
      21    -1     0     0   512   503  0.000000000E+00  0.000000000E+00 -7.848040143E+02  7.848040143E+02  0.000000000E+00  0.00000E+00  9.000E+00
      25     1     1     2     0     0  1.569068448E+01  2.397823092E+00 -6.510533042E+02  6.631351220E+02  1.250033517E+02  0.00000E+00  9.000E+00
       5     1     1     2   501     0  9.666199254E-01 -8.978838457E-01 -1.703627755E+00  5.215879313E+00  4.750000000E+00  0.00000E+00  9.000E+00
      -5     1     1     2     0   503 -6.186779714E+00 -2.309526659E+00 -4.703069976E+01  4.772902027E+01  4.750000000E+00  0.00000E+00  9.000E+00
      21     1     1     2   512   502 -1.047052469E+01  8.095874131E-01 -7.651150726E+01  7.722886806E+01  0.000000000E+00  0.00000E+00  9.000E+00
#rwgt            1           9   5.3296175432627741E-005           4     1477528           0
</event>
<event>
      6   9999  3.45752E-01  6.67406E+01 -1.00000E+00  1.28402E-01
      21    -1     0     0   511   502  0.000000000E+00  0.000000000E+00  5.081318363E+01  5.081318363E+01  0.000000000E+00  0.00000E+00  9.000E+00
      21    -1     0     0   502   503  0.000000000E+00  0.000000000E+00 -1.467227477E+03  1.467227477E+03  0.000000000E+00  0.00000E+00  9.000E+00
      25     1     1     2     0     0  1.598410453E+02 -7.449780023E+01 -5.910334139E+02  6.293210875E+02  1.250018111E+02  0.00000E+00  9.000E+00
       5     1     1     2   501     0 -3.206703298E+01 -9.829001218E+01 -3.457317030E+02  3.608908340E+02  4.750000000E+00  0.00000E+00  9.000E+00
      -5     1     1     2     0   503 -1.056681403E+02  1.098145192E+02 -3.083532327E+02  3.439902079E+02  4.750000000E+00  0.00000E+00  9.000E+00
      21     1     1     2   511   501 -2.210587208E+01  6.297329318E+01 -1.712959436E+02  1.838385311E+02  1.907348633E-06  0.00000E+00  9.000E+00
#rwgt            1           9   3.5493765044187055E-003           4     1479704           0
</event>
<event>
      6   9999  3.45752E-01  6.65721E+00 -1.00000E+00  2.07957E-01
      21    -1     0     0   502   503  0.000000000E+00  0.000000000E+00  4.299067575E+00  4.299067575E+00  0.000000000E+00  0.00000E+00  9.000E+00
       2    -1     0     0   501     0  0.000000000E+00  0.000000000E+00 -2.895858465E+03  2.895858465E+03  0.000000000E+00  0.00000E+00  9.000E+00
      25     1     1     2     0     0  4.816823510E+01  1.087038462E+01 -1.459020957E+03  1.465198119E+03  1.250001253E+02  0.00000E+00  9.000E+00
       5     1     1     2   501     0 -4.966104510E+00  1.648511330E+01 -3.318462514E+02  3.323265235E+02  4.750000000E+00  0.00000E+00  9.000E+00
      -5     1     1     2     0   503 -3.888540622E+01 -3.242346491E+01 -6.840613417E+02  6.859488593E+02  4.750000000E+00  0.00000E+00  9.000E+00
       2     1     1     2   502     0 -4.316724373E+00  5.067966990E+00 -4.166308471E+02  4.166840304E+02  5.394796609E-06  0.00000E+00  9.000E+00
#rwgt            1           9   1.0989342233306816E-003           4     1480584           0
</event>
<event>
      6   9999  3.45752E-01  5.13854E+01 -1.00000E+00  1.34156E-01
      21    -1     0     0   502   511  0.000000000E+00  0.000000000E+00  1.816946393E+02  1.816946393E+02  0.000000000E+00  0.00000E+00  9.000E+00
      21    -1     0     0   501   502  0.000000000E+00  0.000000000E+00 -1.587395764E+02  1.587395764E+02  0.000000000E+00  0.00000E+00  9.000E+00
      25     1     1     2     0     0  3.003748562E+01  2.863431791E+00 -9.886280177E+01  1.621938095E+02  1.249901135E+02  0.00000E+00  9.000E+00
       5     1     1     2   501     0  2.706394706E+00 -1.497312073E+00 -8.306532683E+00  1.005621703E+01  4.750000000E+00  0.00000E+00  9.000E+00
      -5     1     1     2     0   503 -1.464489482E+00  3.940223488E+01  1.561541766E+01  4.267416797E+01  4.750000000E+00  0.00000E+00  9.000E+00
      21     1     1     2   503   511 -3.127939084E+01 -4.076835460E+01  1.145089796E+02  1.255100213E+02  1.907348633E-06  0.00000E+00  9.000E+00
#rwgt            1           9   2.0741554154946464                4     1483537           0
</event>
<event>
      6   9999  3.45752E-01  1.89723E+01 -1.00000E+00  1.61979E-01
      21    -1     0     0   501   502  0.000000000E+00  0.000000000E+00  8.235423298E+01  8.235423298E+01  0.000000000E+00  0.00000E+00  9.000E+00
      21    -1     0     0   512   503  0.000000000E+00  0.000000000E+00 -1.506772722E+03  1.506772722E+03  0.000000000E+00  0.00000E+00  9.000E+00
      25     1     1     2     0     0 -2.150300694E+01 -6.703123248E+01 -1.132798572E+02  1.827918171E+02  1.249998277E+02  0.00000E+00  9.000E+00
       5     1     1     2   501     0  9.163519822E-01  3.781278965E-01  4.440584813E+01  4.467017495E+01  4.750000000E+00  0.00000E+00  9.000E+00
      -5     1     1     2     0   503  2.336196840E+00  7.183679187E+01 -1.314229861E+03  1.316202367E+03  4.750000000E+00  0.00000E+00  9.000E+00
      21     1     1     2   512   502  1.825045812E+01 -5.183687287E+00 -4.131461958E+01  4.546259591E+01  0.000000000E+00  0.00000E+00  9.000E+00
#rwgt            1           9  0.15577042908780311                4     1484983           0
</event>
<event>
      6   9999  3.45752E-01  1.98651E+01 -1.00000E+00  1.60435E-01
      21    -1     0     0   502   503  0.000000000E+00  0.000000000E+00  4.123686929E+01  4.123686929E+01  0.000000000E+00  0.00000E+00  9.000E+00
      21    -1     0     0   501   511  0.000000000E+00  0.000000000E+00 -2.928971990E+02  2.928971990E+02  0.000000000E+00  0.00000E+00  9.000E+00
      25     1     1     2     0     0  1.277493352E+00 -1.228336240E+00 -1.418882668E+02  1.890976868E+02  1.249900560E+02  0.00000E+00  9.000E+00
       5     1     1     2   501     0 -9.038481686E-01 -8.000211527E-01  4.167523976E+00  6.433329733E+00  4.750000000E+00  0.00000E+00  9.000E+00
      -5     1     1     2     0   503 -1.598542235E+01 -1.025562426E+01  3.159693323E+00  1.983072663E+01  4.750000000E+00  0.00000E+00  9.000E+00
      21     1     1     2   502   511  1.561177717E+01  1.228398165E+01 -1.170992802E+02  1.187723251E+02  1.348699152E-06  0.00000E+00  9.000E+00
#rwgt            1           9   3.6111198279444788E-004           4     1488014           0
</event>
<event>
      6   9999  3.45752E-01  5.00519E+00 -1.00000E+00  2.25646E-01
      21    -1     0     0   512   502  0.000000000E+00  0.000000000E+00  2.569155010E+00  2.569155010E+00  0.000000000E+00  0.00000E+00  9.000E+00
      21    -1     0     0   502   503  0.000000000E+00  0.000000000E+00 -3.010005808E+03  3.010005808E+03  0.000000000E+00  0.00000E+00  9.000E+00
      25     1     1     2     0     0 -2.879473562E+00  4.515765785E+00 -2.863005614E+03  2.865738267E+03  1.250039449E+02  0.00000E+00  9.000E+00
       5     1     1     2   501     0 -8.093353409E-01 -8.274065934E-01 -6.644456917E+00  8.249298945E+00  4.750000000E+00  0.00000E+00  9.000E+00
      -5     1     1     2     0   503  3.077839701E-01  2.243985547E-03 -1.204172629E+02  1.205113042E+02  4.750000000E+00  0.00000E+00  9.000E+00
      21     1     1     2   512   501  3.381024933E+00 -3.690603177E+00 -1.736931959E+01  1.807609317E+01  7.152557373E-07  0.00000E+00  9.000E+00
#rwgt            1           9   1.7761209194330400E-004           4     1489925           0
</event>
<event>
      6   9999  3.45752E-01  1.95613E+01 -1.00000E+00  1.60949E-01
      21    -1     0     0   501   502  0.000000000E+00  0.000000000E+00  2.774576913E+01  2.774576913E+01  0.000000000E+00  0.00000E+00  9.000E+00
      21    -1     0     0   511   503  0.000000000E+00  0.000000000E+00 -1.099383725E+03  1.099383725E+03  0.000000000E+00  0.00000E+00  9.000E+00
      25     1     1     2     0     0  8.443844373E+00 -5.510466833E+00 -9.831887482E+02  9.911544123E+02  1.250011625E+02  0.00000E+00  9.000E+00
       5     1     1     2   501     0  1.438577570E+01  5.239849674E-01  1.963082328E+01  2.480235524E+01  4.750000000E+00  0.00000E+00  9.000E+00
      -5     1     1     2     0   503 -3.985797157E+00 -2.628594235E-01 -1.973065314E+01  2.068373388E+01  4.750000000E+00  0.00000E+00  9.000E+00
      21     1     1     2   511   502 -1.884382291E+01  5.249341289E+00 -8.834937792E+01  9.048899284E+01  0.000000000E+00  0.00000E+00  9.000E+00
#rwgt            1           9   3.3913606574058748E-005           4     1493603           0
</event>
<event>
      6   9999  3.45752E-01  3.98992E+01 -1.00000E+00  1.40249E-01
      21    -1     0     0   501   502  0.000000000E+00  0.000000000E+00  2.543616504E+03  2.543616504E+03  0.000000000E+00  0.00000E+00  9.000E+00
      21    -1     0     0   502   512  0.000000000E+00  0.000000000E+00 -1.834267703E+01  1.834267703E+01  0.000000000E+00  0.00000E+00  9.000E+00
      25     1     1     2     0     0  1.053863680E+01 -5.051518657E+00  2.518063987E+02  2.813682716E+02  1.250002447E+02  0.00000E+00  9.000E+00
       5     1     1     2   501     0 -1.801252372E+01  9.914013320E+00  1.826965084E+03  1.827086949E+03  4.750000000E+00  0.00000E+00  9.000E+00
      -5     1     1     2     0   503 -1.990163546E+01  2.416377655E+01  2.999788843E+02  3.016452498E+02  4.750000000E+00  0.00000E+00  9.000E+00
      21     1     1     2   503   512  2.737552239E+01 -2.902627122E+01  1.465234600E+02  1.518587106E+02  1.907348633E-06  0.00000E+00  9.000E+00
#rwgt            1           9   5.3961556474674793E-002           4     1495996           0
</event>
<event>
      6   9999  3.45752E-01  1.55734E+01 -1.00000E+00  1.68971E-01
      21    -1     0     0   501   502  0.000000000E+00  0.000000000E+00  4.515701594E+01  4.515701594E+01  0.000000000E+00  0.00000E+00  9.000E+00
      21    -1     0     0   511   503  0.000000000E+00  0.000000000E+00 -1.619868735E+03  1.619868735E+03  0.000000000E+00  0.00000E+00  9.000E+00
      25     1     1     2     0     0  1.569504974E+00  1.469142950E+02 -3.519462424E+02  4.013549147E+02  1.250333419E+02  0.00000E+00  9.000E+00
       5     1     1     2   501     0  5.781724327E-01  3.637610510E-01  1.267701757E+01  1.355492088E+01  4.750000000E+00  0.00000E+00  9.000E+00
      -5     1     1     2     0   503 -9.459900616E+00 -1.610280349E+02 -9.028328874E+02  9.171419208E+02  4.750000000E+00  0.00000E+00  9.000E+00
      21     1     1     2   511   502  7.312223209E+00  1.374997886E+01 -3.326096064E+02  3.329739942E+02  0.000000000E+00  0.00000E+00  9.000E+00
#rwgt            1           9   2.3785087248569573E-004           4     1497176           0
</event>
<event>
      6   9999  3.45752E-01  5.33945E+00 -1.00000E+00  2.21366E-01
      21    -1     0     0   501   512  0.000000000E+00  0.000000000E+00  3.507686984E+02  3.507686984E+02  0.000000000E+00  0.00000E+00  9.000E+00
      21    -1     0     0   502   503  0.000000000E+00  0.000000000E+00 -8.792902027E+02  8.792902027E+02  0.000000000E+00  0.00000E+00  9.000E+00
      25     1     1     2     0     0 -2.084961967E+00 -6.744170039E+00 -8.520554036E+02  8.612047701E+02  1.250016574E+02  0.00000E+00  9.000E+00
       5     1     1     2   501     0 -1.778569953E+00  9.854231273E-01  8.393001498E+00  9.855929381E+00  4.750000000E+00  0.00000E+00  9.000E+00
      -5     1     1     2     0   503  1.623866379E-01  1.910201657E+00 -2.160807257E+01  2.220690298E+01  4.750000000E+00  0.00000E+00  9.000E+00
      21     1     1     2   502   512  3.701145282E+00  3.848545255E+00  3.367489704E+02  3.367912986E+02  3.814697266E-06  0.00000E+00  9.000E+00
#rwgt            1           9   1.1857973837992688E-004           4     1499893           0
</event>
<event>
      6   9999  3.45752E-01  3.01323E+01 -1.00000E+00  1.47715E-01
      21    -1     0     0   501   502  0.000000000E+00  0.000000000E+00  2.417637645E+02  2.417637645E+02  0.000000000E+00  0.00000E+00  9.000E+00
      21    -1     0     0   511   503  0.000000000E+00  0.000000000E+00 -1.404877302E+02  1.404877302E+02  0.000000000E+00  0.00000E+00  9.000E+00
      25     1     1     2     0     0 -9.312983684E+01  2.023284226E+01  1.616511363E+02  2.254705019E+02  1.249932915E+02  0.00000E+00  9.000E+00
       5     1     1     2   501     0  2.696447146E+01 -2.306863171E+01 -1.437477481E+01  3.858032065E+01  4.750000000E+00  0.00000E+00  9.000E+00
      -5     1     1     2     0   503  6.301491562E+01  3.280293022E+01 -1.104704845E+01  7.205214502E+01  4.750000000E+00  0.00000E+00  9.000E+00
      21     1     1     2   511   502  3.150449753E+00 -2.996714077E+01 -3.495327875E+01  4.614852711E+01  4.768371582E-07  0.00000E+00  9.000E+00
#rwgt            1           9   3.3491575806321783E-002           4     1504271           0
</event>
<event>
      6   9999  3.45752E-01  5.39664E+00 -1.00000E+00  2.20677E-01
      21    -1     0     0   501   502  0.000000000E+00  0.000000000E+00  3.003331139E+01  3.003331139E+01  0.000000000E+00  0.00000E+00  9.000E+00
       2    -1     0     0   502     0  0.000000000E+00  0.000000000E+00 -3.419549309E+03  3.419549309E+03  0.000000000E+00  0.00000E+00  9.000E+00
      25     1     1     2     0     0  1.860105517E+01  3.660637679E+00 -2.589660435E+02  2.881761848E+02  1.249908088E+02  0.00000E+00  9.000E+00
       5     1     1     2   501     0  5.610609079E-01 -2.998327740E+00  1.402387504E+01  1.511741809E+01  4.750000000E+00  0.00000E+00  9.000E+00
      -5     1     1     2     0   503 -2.394841823E+01 -3.155311717E+00 -1.763217972E+02  1.780320797E+02  4.750000000E+00  0.00000E+00  9.000E+00
       2     1     1     2   503     0  4.786302151E+00  2.493001778E+00 -2.968252032E+03  2.968256938E+03  4.315837288E-05  0.00000E+00  9.000E+00
#rwgt            1           9   2.3289678536193175                4     1505530           0
</event>
<event>
      6   9999  3.45752E-01  1.19073E+01 -1.00000E+00  1.79546E-01
      21    -1     0     0   501   502  0.000000000E+00  0.000000000E+00  1.038424519E+02  1.038424519E+02  0.000000000E+00  0.00000E+00  9.000E+00
      21    -1     0     0   502   511  0.000000000E+00  0.000000000E+00 -4.955626517E+02  4.955626517E+02  0.000000000E+00  0.00000E+00  9.000E+00
      25     1     1     2     0     0  9.297798189E+00 -1.197105296E+01 -2.924528145E+00  1.261379413E+02  1.251897448E+02  0.00000E+00  9.000E+00
       5     1     1     2   501     0 -1.742078062E+00 -2.872089567E+00  3.900110315E+01  3.943262966E+01  4.750000000E+00  0.00000E+00  9.000E+00
      -5     1     1     2     0   503 -1.645162246E+01  6.928241266E+00 -2.617722773E+01  3.203851058E+01  4.750000000E+00  0.00000E+00  9.000E+00
      21     1     1     2   503   511  8.895902329E+00  7.914901257E+00 -4.016195471E+02  4.017960221E+02  7.629394531E-06  0.00000E+00  9.000E+00
#rwgt            1           9   289.21512694684401                4     1510012           0
</event>
<event>
      6   9999  3.45752E-01  7.57243E+00 -1.00000E+00  2.00882E-01
      21    -1     0     0   512   503  0.000000000E+00  0.000000000E+00  8.143224689E+00  8.143224689E+00  0.000000000E+00  0.00000E+00  9.000E+00
      21    -1     0     0   501   502  0.000000000E+00  0.000000000E+00 -7.426658336E+02  7.426658336E+02  0.000000000E+00  0.00000E+00  9.000E+00
      25     1     1     2     0     0  5.276462038E+00  1.649480200E+01 -5.760880457E+02  5.897479679E+02  1.250012385E+02  0.00000E+00  9.000E+00
       5     1     1     2   501     0 -2.401548189E+00  1.876873823E+00 -7.194539641E+01  7.216642331E+01  4.750000000E+00  0.00000E+00  9.000E+00
      -5     1     1     2     0   503 -3.572142924E+00 -1.083141280E+01 -6.349120062E+01  6.468210545E+01  4.750000000E+00  0.00000E+00  9.000E+00
      21     1     1     2   512   502  6.972290746E-01 -7.540263023E+00 -2.299796611E+01  2.421256161E+01  0.000000000E+00  0.00000E+00  9.000E+00
#rwgt            1           9   3.5303104018250946E-005           4     1512669           0
</event>
<event>
      6   9999  3.45752E-01  1.20200E+01 -1.00000E+00  1.79152E-01
      21    -1     0     0   501   511  0.000000000E+00  0.000000000E+00  2.125968013E+01  2.125968013E+01  0.000000000E+00  0.00000E+00  9.000E+00
      21    -1     0     0   502   503  0.000000000E+00  0.000000000E+00 -1.134758804E+03  1.134758804E+03  0.000000000E+00  0.00000E+00  9.000E+00
      25     1     1     2     0     0  3.457881928E+01 -2.485750094E+01 -9.659007665E+02  9.748857830E+02  1.249976368E+02  0.00000E+00  9.000E+00
       5     1     1     2   501     0  4.970764258E-01 -4.389702445E-01  8.561588111E+00  9.813412802E+00  4.750000000E+00  0.00000E+00  9.000E+00
      -5     1     1     2     0   503 -4.517924826E+01  3.180816837E+01 -1.435903019E+02  1.539274549E+02  4.750000000E+00  0.00000E+00  9.000E+00
      21     1     1     2   502   511  1.010335255E+01 -6.511697176E+00 -1.256964377E+01  1.739183364E+01  4.129530925E-07  0.00000E+00  9.000E+00
#rwgt            1           9   6.4938780780240665E-002           4     1515366           0
</event>
<event>
      6   9999  3.45752E-01  4.62605E+00 -1.00000E+00  2.35465E-01
      21    -1     0     0   501   512  0.000000000E+00  0.000000000E+00  2.179703654E+02  2.179703654E+02  0.000000000E+00  0.00000E+00  9.000E+00
      21    -1     0     0   502   503  0.000000000E+00  0.000000000E+00 -3.298311399E+02  3.298311399E+02  0.000000000E+00  0.00000E+00  9.000E+00
      25     1     1     2     0     0 -2.885761788E+01 -2.991301592E+00 -2.981194376E+02  3.245713063E+02  1.250184938E+02  0.00000E+00  9.000E+00
       5     1     1     2   501     0  7.337371323E-01 -9.163334311E+00  8.503416321E+01  8.566140601E+01  4.750000000E+00  0.00000E+00  9.000E+00
      -5     1     1     2     0   503  2.961311324E+01  7.774853428E+00 -4.878717773E+00  3.136477657E+01  4.750000000E+00  0.00000E+00  9.000E+00
      21     1     1     2   502   512 -1.489232497E+00  4.379782476E+00  1.061032177E+02  1.062040165E+02  0.000000000E+00  0.00000E+00  9.000E+00
#rwgt            1           9   2.0762074677152342E-003           4     1517816           0
</event>
<event>
      6   9999  3.45752E-01  6.47492E+00 -1.00000E+00  2.09551E-01
      21    -1     0     0   501   502  0.000000000E+00  0.000000000E+00  4.014057784E+03  4.014057784E+03  0.000000000E+00  0.00000E+00  9.000E+00
      -2    -1     0     0     0   503  0.000000000E+00  0.000000000E+00 -2.207981061E+01  2.207981061E+01  0.000000000E+00  0.00000E+00  9.000E+00
      25     1     1     2     0     0 -6.194279975E-01  2.348302177E+01  2.391477405E+03  2.394856846E+03  1.249932002E+02  0.00000E+00  9.000E+00
       5     1     1     2   501     0 -2.342879628E+00 -7.460790768E-01  1.311653463E+03  1.311664368E+03  4.750000000E+00  0.00000E+00  9.000E+00
      -5     1     1     2     0   503 -3.486189993E+00 -2.215259478E+01  3.082810842E+02  3.091321406E+02  4.750000000E+00  0.00000E+00  9.000E+00
      -2     1     1     2     0   502  6.448497618E+00 -5.843479160E-01 -1.943397808E+01  2.048423999E+01  2.489163043E-06  0.00000E+00  9.000E+00
#rwgt            1           9   2.2081656865192006E-003           4     1523585           0
</event>
<event>
      6   9999  3.45752E-01  1.26371E+01 -1.00000E+00  1.77086E-01
      21    -1     0     0   501   502  0.000000000E+00  0.000000000E+00  7.617246467E+01  7.617246467E+01  0.000000000E+00  0.00000E+00  9.000E+00
      21    -1     0     0   502   511  0.000000000E+00  0.000000000E+00 -2.178535648E+03  2.178535648E+03  0.000000000E+00  0.00000E+00  9.000E+00
      25     1     1     2     0     0  1.777401218E+02 -2.845813120E+02 -7.934514638E+02  8.704975112E+02  1.249904701E+02  0.00000E+00  9.000E+00
       5     1     1     2   501     0  6.783028257E-01  6.669184271E-01  1.165033974E+01  1.261736070E+01  4.750000000E+00  0.00000E+00  9.000E+00
      -5     1     1     2     0   503 -1.664754274E+02  2.880448096E+02 -1.066040582E+03  1.116758239E+03  4.750000000E+00  0.00000E+00  9.000E+00
      21     1     1     2   503   511 -1.194299723E+01 -4.130416102E+00 -2.545214777E+02  2.548350017E+02  0.000000000E+00  0.00000E+00  9.000E+00
#rwgt            1           9   5.4833307957768584E-002           4     1526602           0
</event>
<event>
      6   9999  3.45752E-01  1.14967E+01 -1.00000E+00  1.81031E-01
      21    -1     0     0   501   502  0.000000000E+00  0.000000000E+00  8.995646718E+00  8.995646718E+00  0.000000000E+00  0.00000E+00  9.000E+00
      21    -1     0     0   512   503  0.000000000E+00  0.000000000E+00 -7.294461019E+02  7.294461019E+02  0.000000000E+00  0.00000E+00  9.000E+00
      25     1     1     2     0     0 -7.585762644E+00  1.342348607E+01 -5.892254315E+02  6.025345741E+02  1.249942802E+02  0.00000E+00  9.000E+00
       5     1     1     2   501     0  2.831259748E-01  6.620737558E-01 -2.336935990E+00  5.342496776E+00  4.750000000E+00  0.00000E+00  9.000E+00
      -5     1     1     2     0   503  7.167230236E+00 -2.589648416E+00 -6.912299089E+01  6.970384379E+01  4.750000000E+00  0.00000E+00  9.000E+00
      21     1     1     2   512   502  1.354064333E-01 -1.149591141E+01 -5.976509684E+01  6.086083399E+01  6.743495762E-07  0.00000E+00  9.000E+00
#rwgt            1           9   7.6976975524321910E-003           4     1530313           0
</event>
<event>
      6   9999  3.45752E-01  8.74479E+00 -1.00000E+00  1.93546E-01
      21    -1     0     0   501   502  0.000000000E+00  0.000000000E+00  9.222968029E+01  9.222968029E+01  0.000000000E+00  0.00000E+00  9.000E+00
      21    -1     0     0   502   511  0.000000000E+00  0.000000000E+00 -2.774712780E+02  2.774712780E+02  0.000000000E+00  0.00000E+00  9.000E+00
      25     1     1     2     0     0 -1.388560135E+01  3.028010401E+00 -2.367927316E+02  2.681303196E+02  1.249843662E+02  0.00000E+00  9.000E+00
       5     1     1     2   501     0 -2.576557191E+00  8.545516711E+00  6.981439045E+01  7.054272547E+01  4.750000000E+00  0.00000E+00  9.000E+00
      -5     1     1     2     0   503  1.060603189E+01 -5.079129631E+00 -2.390849365E+00  1.290597268E+01  4.750000000E+00  0.00000E+00  9.000E+00
      21     1     1     2   503   511  5.856126650E+00 -6.494397481E+00 -1.587240721E+01  1.812194053E+01  1.685873940E-07  0.00000E+00  9.000E+00
#rwgt            1           9   2.4199114021827384E-005           4     1533251           0
</event>
<event>
      6   9999  3.45752E-01  2.08434E+01 -1.00000E+00  1.58853E-01
      21    -1     0     0   501   512  0.000000000E+00  0.000000000E+00  6.705260375E+01  6.705260375E+01  0.000000000E+00  0.00000E+00  9.000E+00
      21    -1     0     0   502   503  0.000000000E+00  0.000000000E+00 -1.280617498E+03  1.280617498E+03  0.000000000E+00  0.00000E+00  9.000E+00
      25     1     1     2     0     0 -1.021084504E+02  5.358476483E+01 -7.463936537E+02  7.655237449E+02  1.250026202E+02  0.00000E+00  9.000E+00
       5     1     1     2   501     0  6.193464744E-01 -7.664114844E-01  3.750615527E+01  3.781858220E+01  4.750000000E+00  0.00000E+00  9.000E+00
      -5     1     1     2     0   503  1.171564227E+02 -3.907121635E+01 -5.083544432E+02  5.231624889E+02  4.750000000E+00  0.00000E+00  9.000E+00
      21     1     1     2   502   512 -1.566731875E+01 -1.374713700E+01  3.677047228E+00  2.116528594E+01  6.237164002E-07  0.00000E+00  9.000E+00
#rwgt            1           9   6.1869930817884639E-002           4     1536636           0
</event>
<event>
      6   9999  3.45752E-01  1.60058E+01 -1.00000E+00  1.67964E-01
      21    -1     0     0   501   502  0.000000000E+00  0.000000000E+00  9.963223111E+02  9.963223111E+02  0.000000000E+00  0.00000E+00  9.000E+00
      21    -1     0     0   502   511  0.000000000E+00  0.000000000E+00 -2.784694207E+02  2.784694207E+02  0.000000000E+00  0.00000E+00  9.000E+00
      25     1     1     2     0     0 -5.471182863E+01  3.574185669E+01  2.893114334E+01  1.439890717E+02  1.249999088E+02  0.00000E+00  9.000E+00
       5     1     1     2   501     0  9.717955890E-01  1.018012812E+00  6.852540066E+02  6.852719145E+02  4.750000000E+00  0.00000E+00  9.000E+00
      -5     1     1     2     0   503  3.816935226E+01 -4.046638645E+01  2.208306627E+02  2.277787785E+02  4.750000000E+00  0.00000E+00  9.000E+00
      21     1     1     2   503   511  1.557068079E+01  3.706516947E+00 -2.171629222E+02  2.177519671E+02  3.814697266E-06  0.00000E+00  9.000E+00
#rwgt            1           9  0.58194515274350733                4     1539010           0
</event>
<event>
      6   9999  3.45752E-01  1.83695E+01 -1.00000E+00  1.63082E-01
      21    -1     0     0   501   502  0.000000000E+00  0.000000000E+00  2.344496459E+01  2.344496459E+01  0.000000000E+00  0.00000E+00  9.000E+00
       2    -1     0     0   502     0  0.000000000E+00  0.000000000E+00 -3.377429935E+03  3.377429935E+03  0.000000000E+00  0.00000E+00  9.000E+00
      25     1     1     2     0     0 -1.111418756E+01 -1.846911764E+01 -3.501693874E+02  3.724350464E+02  1.249985217E+02  0.00000E+00  9.000E+00
       5     1     1     2   501     0  8.687316514E-01  5.186519305E-01  1.144721011E+01  1.243482263E+01  4.750000000E+00  0.00000E+00  9.000E+00
      -5     1     1     2     0   503  2.744824329E+01  1.150829262E+01 -6.775144869E+02  6.781845540E+02  4.750000000E+00  0.00000E+00  9.000E+00
       2     1     1     2   503     0 -1.720278738E+01  6.442173091E+00 -2.337748306E+03  2.337820476E+03  4.315837288E-05  0.00000E+00  9.000E+00
#rwgt            1           9   7.1705458534004776E-004           4     1542111           0
</event>
<event>
      6   9999  3.45752E-01  1.52450E+01 -1.00000E+00  1.69764E-01
      21    -1     0     0   501   511  0.000000000E+00  0.000000000E+00  1.347502404E+01  1.347502404E+01  0.000000000E+00  0.00000E+00  9.000E+00
      21    -1     0     0   502   503  0.000000000E+00  0.000000000E+00 -8.663188901E+02  8.663188901E+02  0.000000000E+00  0.00000E+00  9.000E+00
      25     1     1     2     0     0  2.984969619E+01  3.468790775E+00 -4.961735671E+02  5.125883907E+02  1.251223910E+02  0.00000E+00  9.000E+00
       5     1     1     2   501     0 -4.703010914E-01 -6.882010682E-01  5.279305320E-01  4.851393045E+00  4.750000000E+00  0.00000E+00  9.000E+00
      -5     1     1     2     0   503 -2.910671904E+01 -1.802315289E+01 -3.238188939E+02  3.256582161E+02  4.750000000E+00  0.00000E+00  9.000E+00
      21     1     1     2   502   511 -2.726760570E-01  1.524256318E+01 -3.337933556E+01  3.669591431E+01  4.768371582E-07  0.00000E+00  9.000E+00
#rwgt            1           9   1.6139494074409697E-004           4     1544092           0
</event>
<event>
      6   9999 -3.45752E-01  7.09747E+00 -1.00000E+00  2.04376E-01
      21    -1     0     0   501   502  0.000000000E+00  0.000000000E+00  1.212758725E+01  1.212758725E+01  0.000000000E+00  0.00000E+00  9.000E+00
      21    -1     0     0   502   512  0.000000000E+00  0.000000000E+00 -2.282013287E+03  2.282013287E+03  0.000000000E+00  0.00000E+00  9.000E+00
      25     1     1     2     0     0 -1.638286501E+01  1.264210040E+01 -2.093588917E+03  2.097419254E+03  1.249990020E+02  0.00000E+00  9.000E+00
       5     1     1     2   501     0 -1.609509145E+00  4.322388326E+00  7.549650595E+00  1.004157780E+01  4.750000000E+00  0.00000E+00  9.000E+00
      -5     1     1     2     0   503  1.090447644E+01 -1.733301928E+01 -8.432133886E+01  8.690219704E+01  4.750000000E+00  0.00000E+00  9.000E+00
      21     1     1     2   503   512  7.087897712E+00  3.685305553E-01 -9.952509494E+01  9.977784639E+01  1.348699152E-06  0.00000E+00  9.000E+00
#rwgt            1           9  -9.1893675536458574E-004           4     1545766           0
</event>
<event>
      6   9999  3.45752E-01  8.73143E+00 -1.00000E+00  1.93621E-01
      21    -1     0     0   501   502  0.000000000E+00  0.000000000E+00  1.902278555E+01  1.902278555E+01  0.000000000E+00  0.00000E+00  9.000E+00
      21    -1     0     0   502   511  0.000000000E+00  0.000000000E+00 -1.194107277E+03  1.194107277E+03  0.000000000E+00  0.00000E+00  9.000E+00
      25     1     1     2     0     0 -1.224582960E+00  6.753437590E+00 -8.586669757E+02  8.677453376E+02  1.250035492E+02  0.00000E+00  9.000E+00
       5     1     1     2   501     0 -4.363834929E+00  8.301953012E-01  1.360759901E+01  1.508182781E+01  4.750000000E+00  0.00000E+00  9.000E+00
      -5     1     1     2     0   503  5.452040139E-01 -4.559473062E-01 -1.113463262E+02  1.114498631E+02  4.750000000E+00  0.00000E+00  9.000E+00
      21     1     1     2   503   511  5.043213875E+00 -7.127685585E+00 -2.186787881E+02  2.188530335E+02  2.697398305E-06  0.00000E+00  9.000E+00
#rwgt            1           9   3.8900499508255176E-004           4     1550121           0
</event>
<event>
      6   9999  3.45752E-01  3.79097E+00 -1.00000E+00  2.52775E-01
      21    -1     0     0   501   512  0.000000000E+00  0.000000000E+00  1.199848408E+02  1.199848408E+02  0.000000000E+00  0.00000E+00  9.000E+00
      21    -1     0     0   502   503  0.000000000E+00  0.000000000E+00 -8.423635820E+02  8.423635820E+02  0.000000000E+00  0.00000E+00  9.000E+00
      25     1     1     2     0     0 -5.304140037E+00  4.600095712E+00 -8.079728455E+02  8.176147351E+02  1.249977648E+02  0.00000E+00  9.000E+00
       5     1     1     2   501     0  1.477194445E+00  1.244098411E-01  3.189789010E+00  5.910569783E+00  4.750000000E+00  0.00000E+00  9.000E+00
      -5     1     1     2     0   503  1.076764621E+00 -2.115299817E+00 -2.792667293E+01  2.842702018E+01  4.750000000E+00  0.00000E+00  9.000E+00
      21     1     1     2   502   512  2.750180971E+00 -2.609205736E+00  1.103309882E+02  1.103960977E+02  3.568322551E-06  0.00000E+00  9.000E+00
#rwgt            1           9   5.9028079636349793E-004           4     1553225           0
</event>
<event>
      6   9999  3.45752E-01  3.67947E+00 -1.00000E+00  2.55605E-01
      21    -1     0     0   511   503  0.000000000E+00  0.000000000E+00  4.071899406E+02  4.071899406E+02  0.000000000E+00  0.00000E+00  9.000E+00
      21    -1     0     0   501   502  0.000000000E+00  0.000000000E+00 -1.663960633E+03  1.663960633E+03  0.000000000E+00  0.00000E+00  9.000E+00
      25     1     1     2     0     0 -1.739552657E+01 -3.457876675E+01 -9.767729632E+02  9.854992344E+02  1.250000955E+02  0.00000E+00  9.000E+00
       5     1     1     2   501     0  1.338534076E+01  3.080972118E+01 -6.374562297E+02  6.383583740E+02  4.750000000E+00  0.00000E+00  9.000E+00
      -5     1     1     2     0   503  2.139227871E+00  6.007583682E-01 -4.475573152E+01  4.506190420E+01  4.750000000E+00  0.00000E+00  9.000E+00
      21     1     1     2   511   502  1.870957943E+00  3.168287204E+00  4.022142318E+02  4.022310614E+02  1.206313194E-05  0.00000E+00  9.000E+00
#rwgt            1           9   8.1371813854351632E-003           4     1558289           0
</event>
<event>
      6   9999  3.45752E-01  8.57523E+00 -1.00000E+00  1.94511E-01
      21    -1     0     0   501   502  0.000000000E+00  0.000000000E+00  1.769996000E+01  1.769996000E+01  0.000000000E+00  0.00000E+00  9.000E+00
      21    -1     0     0   512   503  0.000000000E+00  0.000000000E+00 -1.040333284E+03  1.040333284E+03  0.000000000E+00  0.00000E+00  9.000E+00
      25     1     1     2     0     0 -2.595594553E+01 -3.507012507E+01 -5.201728970E+02  5.367573803E+02  1.250000711E+02  0.00000E+00  9.000E+00
       5     1     1     2   501     0 -2.548635541E+00 -4.316154906E+00  6.655413293E+00  9.590712298E+00  4.750000000E+00  0.00000E+00  9.000E+00
      -5     1     1     2     0   503  2.662370526E+01  3.101986135E+01 -4.589760013E+02  4.608173019E+02  4.750000000E+00  0.00000E+00  9.000E+00
      21     1     1     2   512   502  1.880875806E+00  8.366418622E+00 -5.013983900E+01  5.086784947E+01  6.743495762E-07  0.00000E+00  9.000E+00
#rwgt            1           9   3.0301269307755205E-002           4     1563097           0
</event>
<event>
      6   9999 -3.45752E-01  2.12195E+01 -1.00000E+00  1.58273E-01
      21    -1     0     0   511   502  0.000000000E+00  0.000000000E+00  2.611644060E+01  2.611644060E+01  0.000000000E+00  0.00000E+00  9.000E+00
      21    -1     0     0   502   503  0.000000000E+00  0.000000000E+00 -1.063326595E+03  1.063326595E+03  0.000000000E+00  0.00000E+00  9.000E+00
      25     1     1     2     0     0  5.400105125E+01  3.106213649E+01 -9.264148966E+02  9.368848358E+02  1.250106595E+02  0.00000E+00  9.000E+00
       5     1     1     2   501     0  2.703546963E+00 -1.416317313E+00  4.296320573E+00  7.094786211E+00  4.750000000E+00  0.00000E+00  9.000E+00
      -5     1     1     2     0   503 -4.414659124E+01 -4.675028772E+01 -6.744532871E+01  9.330565783E+01  4.750000000E+00  0.00000E+00  9.000E+00
      21     1     1     2   511   501 -1.255800698E+01  1.710446854E+01 -4.764624995E+01  5.215775606E+01  6.743495762E-07  0.00000E+00  9.000E+00
#rwgt            1           9  -1.6411948030450678E-005           4     1566469           0
</event>
<event>
      6   9999  3.45752E-01  2.16737E+01 -1.00000E+00  1.57591E-01
      21    -1     0     0   512   503  0.000000000E+00  0.000000000E+00  5.500521455E+01  5.500521455E+01  0.000000000E+00  0.00000E+00  9.000E+00
      21    -1     0     0   501   502  0.000000000E+00  0.000000000E+00 -1.221144104E+02  1.221144104E+02  0.000000000E+00  0.00000E+00  9.000E+00
      25     1     1     2     0     0 -2.363803779E+01  4.645492702E+00 -6.431258890E+01  1.426248012E+02  1.250015495E+02  0.00000E+00  9.000E+00
       5     1     1     2   501     0 -8.953462680E-01 -1.412459355E-01  2.645593497E+00  5.512101260E+00  4.750000000E+00  0.00000E+00  9.000E+00
      -5     1     1     2     0   503  2.882018865E+00 -3.519550024E+00  2.234105742E-01  6.580704932E+00  4.750000000E+00  0.00000E+00  9.000E+00
      21     1     1     2   512   502  2.165136520E+01 -9.846967424E-01 -5.665610991E+00  2.240201755E+01  4.842304232E-07  0.00000E+00  9.000E+00
#rwgt            1           9   2.0282601256881895E-003           4     1568315           0
</event>
<event>
      6   9999  3.45752E-01  6.50792E+00 -1.00000E+00  2.09257E-01
      21    -1     0     0   511   502  0.000000000E+00  0.000000000E+00  1.261209526E+03  1.261209526E+03  0.000000000E+00  0.00000E+00  9.000E+00
      21    -1     0     0   502   503  0.000000000E+00  0.000000000E+00 -3.615641001E+02  3.615641001E+02  0.000000000E+00  0.00000E+00  9.000E+00
      25     1     1     2     0     0 -2.896806593E+01  1.859374848E+01 -3.104700901E+02  3.364540330E+02  1.249990525E+02  0.00000E+00  9.000E+00
       5     1     1     2   501     0 -3.686329490E-01 -5.378726890E+00  4.510942721E+02  4.511514950E+02  4.750000000E+00  0.00000E+00  9.000E+00
      -5     1     1     2     0   503  3.021976050E+01 -1.966274857E+01 -2.937357964E+01  4.674641470E+01  4.750000000E+00  0.00000E+00  9.000E+00
      21     1     1     2   511   501 -8.830616266E-01  6.447726980E+00  7.883948232E+02  7.884216830E+02  1.078959322E-05  0.00000E+00  9.000E+00
#rwgt            1           9  0.99330952936608130                4     1569439           0
</event>
<event>
      6   9999  3.45752E-01  4.64134E+00 -1.00000E+00  2.35199E-01
      -2    -1     0     0     0   502  0.000000000E+00  0.000000000E+00  3.320802581E+01  3.320802581E+01  0.000000000E+00  0.00000E+00  9.000E+00
       2    -1     0     0   512     0  0.000000000E+00  0.000000000E+00 -1.145480945E+03  1.145480945E+03  0.000000000E+00  0.00000E+00  9.000E+00
      25     1     1     2     0     0 -6.877009557E+01 -7.790054487E+01 -6.758584249E+02  6.951312306E+02  1.249999848E+02  0.00000E+00  9.000E+00
       5     1     1     2   501     0 -5.188723844E+00 -4.591306816E+01 -1.647470517E+02  1.711697585E+02  4.750000000E+00  0.00000E+00  9.000E+00
      -5     1     1     2     0   502  7.210148282E+01  1.280671227E+02 -2.483871359E+02  2.886495168E+02  4.750000000E+00  0.00000E+00  9.000E+00
      21     1     1     2   512   501  1.857336594E+00 -4.253509637E+00 -2.328030671E+01  2.373846507E+01  3.371747881E-07  0.00000E+00  9.000E+00
#rwgt            1           3   5.2524049672927522E-002           4     1575502           0
</event>
<event>
      6   9999  3.45752E-01  7.42086E+00 -1.00000E+00  2.01959E-01
      21    -1     0     0   511   502  0.000000000E+00  0.000000000E+00  7.286056033E+01  7.286056033E+01  0.000000000E+00  0.00000E+00  9.000E+00
      21    -1     0     0   502   503  0.000000000E+00  0.000000000E+00 -1.015608460E+03  1.015608460E+03  0.000000000E+00  0.00000E+00  9.000E+00
      25     1     1     2     0     0  2.510577683E+01 -2.207003983E+01 -3.979824091E+02  4.184875207E+02  1.249976815E+02  0.00000E+00  9.000E+00
       5     1     1     2   501     0 -7.898139167E-01  3.367809213E+00  5.596882226E+00  8.115019136E+00  4.750000000E+00  0.00000E+00  9.000E+00
      -5     1     1     2     0   503 -3.064194303E+01  2.258180738E+01 -6.052576095E+02  6.064719310E+02  4.750000000E+00  0.00000E+00  9.000E+00
      21     1     1     2   511   501  6.325980116E+00 -3.879576767E+00  5.489523652E+01  5.539454967E+01  2.431401974E-06  0.00000E+00  9.000E+00
#rwgt            1           9   4.4368398656093835E-002           4     1586364           0
</event>
<event>
      6   9999  3.45752E-01  3.90516E+00 -1.00000E+00  2.50027E-01
      21    -1     0     0   512   502  0.000000000E+00  0.000000000E+00  1.224652716E+03  1.224652716E+03  0.000000000E+00  0.00000E+00  9.000E+00
      21    -1     0     0   502   503  0.000000000E+00  0.000000000E+00 -1.982264573E+01  1.982264573E+01  0.000000000E+00  0.00000E+00  9.000E+00
      25     1     1     2     0     0  1.220241051E+01 -4.526645032E+00  6.810549074E+02  6.925509659E+02  1.249866556E+02  0.00000E+00  9.000E+00
       5     1     1     2   501     0  6.925146230E-01  1.264336500E+00  2.196082359E+02  2.196643301E+02  4.750000000E+00  0.00000E+00  9.000E+00
      -5     1     1     2     0   503 -1.038918484E+01  2.670528457E-01 -1.170864271E+01  1.636035736E+01  4.750000000E+00  0.00000E+00  9.000E+00
      21     1     1     2   512   501 -2.505740291E+00  2.995255686E+00  3.158755692E+02  3.158997080E+02  5.394796609E-06  0.00000E+00  9.000E+00
#rwgt            1           9   25.492010301479549                4     1589551           0
</event>
<event>
      6   9999 -3.45752E-01  1.85905E+01 -1.00000E+00  1.62671E-01
      21    -1     0     0   501   502  0.000000000E+00  0.000000000E+00  7.714891639E+00  7.714891639E+00  0.000000000E+00  0.00000E+00  9.000E+00
      21    -1     0     0   502   511  0.000000000E+00  0.000000000E+00 -1.366779861E+03  1.366779861E+03  0.000000000E+00  0.00000E+00  9.000E+00
      25     1     1     2     0     0  2.127048883E+01 -8.943448220E+00 -6.045331001E+02  6.177501014E+02  1.249899984E+02  0.00000E+00  9.000E+00
       5     1     1     2   501     0  1.124038270E+00 -8.935358015E-01 -6.485795290E+00  8.166388970E+00  4.750000000E+00  0.00000E+00  9.000E+00
      -5     1     1     2     0   503 -6.049859003E+00  9.792131717E-01 -1.160085339E+02  1.162673732E+02  4.750000000E+00  0.00000E+00  9.000E+00
      21     1     1     2   503   511 -1.634466810E+01  8.857770850E+00 -6.320375399E+02  6.323108888E+02  7.629394531E-06  0.00000E+00  9.000E+00
#rwgt            1           9  -4.1728126497326737E-004           4     1595078           0
</event>
<event>
      6   9999  3.45752E-01  1.26436E+01 -1.00000E+00  1.77065E-01
      21    -1     0     0   501   502  0.000000000E+00  0.000000000E+00  4.733455121E+01  4.733455121E+01  0.000000000E+00  0.00000E+00  9.000E+00
      21    -1     0     0   502   512  0.000000000E+00  0.000000000E+00 -1.211310695E+03  1.211310695E+03  0.000000000E+00  0.00000E+00  9.000E+00
      25     1     1     2     0     0 -5.006966675E+01 -2.815822944E+01 -1.462347432E+02  2.007694287E+02  1.249956239E+02  0.00000E+00  9.000E+00
       5     1     1     2   501     0 -1.606664021E+00 -1.782105466E+00  1.284904383E+01  1.390746909E+01  4.750000000E+00  0.00000E+00  9.000E+00
      -5     1     1     2     0   503  5.223441109E+01  1.730908259E+01 -1.081140068E+02  1.214052677E+02  4.750000000E+00  0.00000E+00  9.000E+00
      21     1     1     2   503   512 -5.580803148E-01  1.263125232E+01 -9.224764374E+02  9.225630805E+02  1.078959322E-05  0.00000E+00  9.000E+00
#rwgt            1           9   6.4701603700504642E-004           4     1596355           0
</event>
<event>
      6   9999 -3.45752E-01  7.03239E+00 -1.00000E+00  2.04883E-01
       1    -1     0     0   501     0  0.000000000E+00  0.000000000E+00  2.789941176E+01  2.789941176E+01  0.000000000E+00  0.00000E+00  9.000E+00
      21    -1     0     0   502   503  0.000000000E+00  0.000000000E+00 -1.734104033E+03  1.734104033E+03  0.000000000E+00  0.00000E+00  9.000E+00
      25     1     1     2     0     0 -9.320533009E-01  7.761823836E+00 -1.619297421E+03  1.624133822E+03  1.250016744E+02  0.00000E+00  9.000E+00
       5     1     1     2   501     0 -3.189221224E+00  3.145824199E-02 -2.299043056E+00  6.166053893E+00  4.750000000E+00  0.00000E+00  9.000E+00
      -5     1     1     2     0   503 -2.434830629E+00 -1.033728815E+01 -1.073093054E+02  1.079381186E+02  4.750000000E+00  0.00000E+00  9.000E+00
       1     1     1     2   502     0  6.556105154E+00  2.544006069E+00  2.270114850E+01  2.376545023E+01  1.507891493E-06  0.00000E+00  9.000E+00
#rwgt            1           9 -0.47503288230803875                4     1598647           0
</event>
<event>
      6   9999  3.45752E-01  1.06253E+01 -1.00000E+00  1.84461E-01
      21    -1     0     0   501   502  0.000000000E+00  0.000000000E+00  1.233653170E+01  1.233653170E+01  0.000000000E+00  0.00000E+00  9.000E+00
      21    -1     0     0   502   511  0.000000000E+00  0.000000000E+00 -1.303257527E+03  1.303257527E+03  0.000000000E+00  0.00000E+00  9.000E+00
      25     1     1     2     0     0 -1.953388969E+00 -3.294965713E+00 -4.122025570E+02  4.307571803E+02  1.250045113E+02  0.00000E+00  9.000E+00
       5     1     1     2   501     0 -5.428534962E-01 -9.014668599E-01 -1.470593442E-01  4.867387273E+00  4.750000000E+00  0.00000E+00  9.000E+00
      -5     1     1     2     0   503 -2.936391344E+00 -4.935054825E+00 -2.017650719E+01  2.150886103E+01  4.750000000E+00  0.00000E+00  9.000E+00
      21     1     1     2   503   511  5.432633809E+00  9.131487398E+00 -8.583948721E+02  8.584606305E+02  2.157918644E-05  0.00000E+00  9.000E+00
#rwgt            1           9   3.5743699416648975E-003           4     1601649           0
</event>
<event>
      6   9999  3.45752E-01  9.66321E+00 -1.00000E+00  1.88775E-01
      21    -1     0     0   501   502  0.000000000E+00  0.000000000E+00  4.124304908E+01  4.124304908E+01  0.000000000E+00  0.00000E+00  9.000E+00
      21    -1     0     0   502   512  0.000000000E+00  0.000000000E+00 -1.295264001E+03  1.295264001E+03  0.000000000E+00  0.00000E+00  9.000E+00
      25     1     1     2     0     0 -6.166804363E+00 -5.121859356E+00 -1.946354035E+02  2.314578544E+02  1.250021406E+02  0.00000E+00  9.000E+00
       5     1     1     2   501     0  2.882644153E+00  5.216945772E+00  2.132888628E+01  2.264972517E+01  4.750000000E+00  0.00000E+00  9.000E+00
      -5     1     1     2     0   503  4.157574361E+00  9.528572543E+00 -1.052758765E+03  1.052820810E+03  4.750000000E+00  0.00000E+00  9.000E+00
      21     1     1     2   503   512 -8.734141511E-01 -9.623658958E+00 -2.795567036E+01  2.957866071E+01  3.371747881E-07  0.00000E+00  9.000E+00
#rwgt            1           9   9.4505459644187814E-002           4     1603790           0
</event>
<event>
      6   9999  3.45752E-01  1.62763E+01 -1.00000E+00  1.67354E-01
      21    -1     0     0   511   502  0.000000000E+00  0.000000000E+00  6.303972820E+01  6.303972820E+01  0.000000000E+00  0.00000E+00  9.000E+00
      21    -1     0     0   502   503  0.000000000E+00  0.000000000E+00 -1.276997779E+02  1.276997779E+02  0.000000000E+00  0.00000E+00  9.000E+00
      25     1     1     2     0     0  2.128371858E+01  1.231743368E+00 -5.082309683E+01  1.366122862E+02  1.250016628E+02  0.00000E+00  9.000E+00
       5     1     1     2   501     0 -6.112815100E+00 -4.266461784E+00 -2.539479541E+01  2.688916768E+01  4.750000000E+00  0.00000E+00  9.000E+00
      -5     1     1     2     0   503  7.187582756E-01 -4.919027890E-01 -2.758427610E+00  5.561475046E+00  4.750000000E+00  0.00000E+00  9.000E+00
      21     1     1     2   511   501 -1.588966175E+01  3.526621204E+00  1.431627013E+01  2.167657718E+01  1.685873940E-07  0.00000E+00  9.000E+00
#rwgt            1           9   2.8133323854303234E-002           4     1607812           0
</event>
<event>
      6   9999  3.45752E-01  3.01896E+01 -1.00000E+00  1.47661E-01
      21    -1     0     0   512   503  0.000000000E+00  0.000000000E+00  2.623533011E+01  2.623533011E+01  0.000000000E+00  0.00000E+00  9.000E+00
      21    -1     0     0   501   502  0.000000000E+00  0.000000000E+00 -1.091790019E+03  1.091790019E+03  0.000000000E+00  0.00000E+00  9.000E+00
      25     1     1     2     0     0 -8.619780538E+01  4.018203606E+00 -3.689595219E+02  3.990019739E+02  1.250009548E+02  0.00000E+00  9.000E+00
       5     1     1     2   501     0  5.351108677E+01 -2.912139900E+00 -3.267080405E+02  3.311081744E+02  4.750000000E+00  0.00000E+00  9.000E+00
      -5     1     1     2     0   503  4.854902645E+01  2.458045982E+01 -3.435094380E+02  3.478253922E+02  4.750000000E+00  0.00000E+00  9.000E+00
      21     1     1     2   512   502 -1.586230784E+01 -2.568652352E+01 -2.637768835E+01  4.008980847E+01  9.536743164E-07  0.00000E+00  9.000E+00
#rwgt            1           9   4.1041443438763519E-004           4     1609216           0
</event>
<event>
      6   9999  3.45752E-01  3.40992E+01 -1.00000E+00  1.44328E-01
      21    -1     0     0   502   503  0.000000000E+00  0.000000000E+00  1.671461790E+03  1.671461790E+03  0.000000000E+00  0.00000E+00  9.000E+00
      21    -1     0     0   511   502  0.000000000E+00  0.000000000E+00 -2.922999688E+01  2.922999688E+01  0.000000000E+00  0.00000E+00  9.000E+00
      25     1     1     2     0     0 -1.155910838E+01  2.754437528E+01  7.436583621E+02  7.546798461E+02  1.249864191E+02  0.00000E+00  9.000E+00
       5     1     1     2   501     0 -2.860637680E+00  2.262118549E+00  2.895630083E+02  2.896249277E+02  4.750000000E+00  0.00000E+00  9.000E+00
      -5     1     1     2     0   503 -7.880933086E+00 -4.010401745E+00  6.203656019E+02  6.204468027E+02  4.750000000E+00  0.00000E+00  9.000E+00
      21     1     1     2   511   501  2.230067915E+01 -2.579609208E+01 -1.135517896E+01  3.594021072E+01  7.539457465E-07  0.00000E+00  9.000E+00
#rwgt            1           9   1.2336815832942672E-004           4     1610704           0
</event>
<event>
      6   9999 -3.45752E-01  1.02170E+01 -1.00000E+00  1.86217E-01
      21    -1     0     0   501   502  0.000000000E+00  0.000000000E+00  2.828751196E+02  2.828751196E+02  0.000000000E+00  0.00000E+00  9.000E+00
      -3    -1     0     0     0   503  0.000000000E+00  0.000000000E+00 -3.650479063E+02  3.650479063E+02  0.000000000E+00  0.00000E+00  9.000E+00
      25     1     1     2     0     0 -2.161477106E+01 -2.833002299E+01 -1.633445365E+01  1.310027067E+02  1.250004250E+02  0.00000E+00  9.000E+00
       5     1     1     2   501     0 -5.892684573E+00  4.208181556E+00  1.612780375E+02  1.615103724E+02  4.750000000E+00  0.00000E+00  9.000E+00
      -5     1     1     2     0   503  1.853527269E+01  2.900923318E+01  5.934241918E+01  6.876901306E+01  4.750000000E+00  0.00000E+00  9.000E+00
      -3     1     1     2     0   502  8.972182952E+00 -4.887391738E+00 -2.864587898E+02  2.866409337E+02  5.394796609E-06  0.00000E+00  9.000E+00
#rwgt            1           9  -2.0313773161597526E-004           4     1611934           0
</event>
<event>
      6   9999  3.45752E-01  1.38985E+01 -1.00000E+00  1.73293E-01
      21    -1     0     0   501   502  0.000000000E+00  0.000000000E+00  1.596138528E+01  1.596138528E+01  0.000000000E+00  0.00000E+00  9.000E+00
       2    -1     0     0   502     0  0.000000000E+00  0.000000000E+00 -1.295851061E+03  1.295851061E+03  0.000000000E+00  0.00000E+00  9.000E+00
      25     1     1     2     0     0 -2.443329502E+01  4.391059153E+01 -6.411633294E+02  6.551645095E+02  1.249999746E+02  0.00000E+00  9.000E+00
       5     1     1     2   501     0  1.659940880E+00 -1.660998974E+00  4.494151906E+00  6.947965362E+00  4.750000000E+00  0.00000E+00  9.000E+00
      -5     1     1     2     0   503  3.650098211E+01 -4.007667868E+01 -2.340061770E+02  2.402496935E+02  4.750000000E+00  0.00000E+00  9.000E+00
       2     1     1     2   503     0 -1.372762798E+01 -2.172913876E+00 -4.092143218E+02  4.094502784E+02  5.394796609E-06  0.00000E+00  9.000E+00
#rwgt            1           9   3.6346628321518048E-004           4     1614938           0
</event>
<event>
      6   9999 -3.45752E-01  5.40865E+00 -1.00000E+00  2.20533E-01
      21    -1     0     0   501   511  0.000000000E+00  0.000000000E+00  4.567905893E+02  4.567905893E+02  0.000000000E+00  0.00000E+00  9.000E+00
      21    -1     0     0   502   503  0.000000000E+00  0.000000000E+00 -9.616222747E+02  9.616222747E+02  0.000000000E+00  0.00000E+00  9.000E+00
      25     1     1     2     0     0  1.535760730E+01 -8.073560061E+00 -9.157773952E+02  9.244330881E+02  1.250090332E+02  0.00000E+00  9.000E+00
       5     1     1     2   501     0  4.330554063E+00 -2.628814240E+00  1.132570931E+01  1.328527584E+01  4.750000000E+00  0.00000E+00  9.000E+00
      -5     1     1     2     0   503 -2.112765752E+01  5.488798269E+00 -3.744141477E+01  4.359961993E+01  4.750000000E+00  0.00000E+00  9.000E+00
      21     1     1     2   502   511  1.439496151E+00  5.213576032E+00  4.370614153E+02  4.370948802E+02  7.629394531E-06  0.00000E+00  9.000E+00
#rwgt            1           9  -5.2791932368745343E-004           4     1616897           0
</event>
<event>
      6   9999  3.45752E-01  7.50964E+00 -1.00000E+00  2.01324E-01
      21    -1     0     0   501   512  0.000000000E+00  0.000000000E+00  3.166261772E+03  3.166261772E+03  0.000000000E+00  0.00000E+00  9.000E+00
      21    -1     0     0   502   503  0.000000000E+00  0.000000000E+00 -2.342350206E+00  2.342350206E+00  0.000000000E+00  0.00000E+00  9.000E+00
      25     1     1     2     0     0 -8.674251808E+00 -2.904309421E+00  1.777186495E+03  1.781602369E+03  1.250259407E+02  0.00000E+00  9.000E+00
       5     1     1     2   501     0  9.814278524E-02 -2.607981788E-02  8.568147198E+02  8.568278922E+02  4.750000000E+00  0.00000E+00  9.000E+00
      -5     1     1     2     0   503  1.488995687E+00  4.469474501E-01  6.390267508E+01  6.409782565E+01  4.750000000E+00  0.00000E+00  9.000E+00
      21     1     1     2   502   512  7.087113336E+00  2.483441789E+00  4.660155317E+02  4.660760351E+02  5.394796609E-06  0.00000E+00  9.000E+00
#rwgt            1           9   3.5733437877136568E-004           4     1621199           0
</event>
<event>
      6   9999  3.45752E-01  8.94213E+01 -1.00000E+00  1.22535E-01
      21    -1     0     0   501   511  0.000000000E+00  0.000000000E+00  1.779771879E+01  1.779771879E+01  0.000000000E+00  0.00000E+00  9.000E+00
      21    -1     0     0   502   503  0.000000000E+00  0.000000000E+00 -1.051223846E+03  1.051223846E+03  0.000000000E+00  0.00000E+00  9.000E+00
      25     1     1     2     0     0 -2.973782327E+01 -7.037103880E+01 -7.169664547E+02  7.317826933E+02  1.250143668E+02  0.00000E+00  9.000E+00
       5     1     1     2   501     0 -2.685682012E+00  2.010147975E+00 -3.059704148E+01  3.114474321E+01  4.750000000E+00  0.00000E+00  9.000E+00
      -5     1     1     2     0   503 -9.713947002E+00 -1.050987674E+01 -8.356133900E+01  8.491100135E+01  4.750000000E+00  0.00000E+00  9.000E+00
      21     1     1     2   502   511  4.213745229E+01  7.887076757E+01 -2.023012924E+02  2.211831272E+02  0.000000000E+00  0.00000E+00  9.000E+00
#rwgt            1           9   3.6571492515652019E-004           4     1624094           0
</event>
<event>
      6   9999  3.45752E-01  1.33805E+01 -1.00000E+00  1.74787E-01
      21    -1     0     0   512   502  0.000000000E+00  0.000000000E+00  1.486939265E+01  1.486939265E+01  0.000000000E+00  0.00000E+00  9.000E+00
      21    -1     0     0   502   503  0.000000000E+00  0.000000000E+00 -9.742519242E+02  9.742519242E+02  0.000000000E+00  0.00000E+00  9.000E+00
      25     1     1     2     0     0 -9.281580132E+00  1.678812953E+00 -8.701691807E+02  8.791525749E+02  1.250035229E+02  0.00000E+00  9.000E+00
       5     1     1     2   501     0 -6.744635526E-01 -7.973674318E-01  7.822192437E+00  9.210857203E+00  4.750000000E+00  0.00000E+00  9.000E+00
      -5     1     1     2     0   503 -3.424419254E+00 -8.650092424E-01 -7.307547814E+01  7.331482042E+01  4.750000000E+00  0.00000E+00  9.000E+00
      21     1     1     2   512   501  1.338046294E+01 -1.643627875E-02 -2.396006516E+01  2.744306436E+01  6.743495762E-07  0.00000E+00  9.000E+00
#rwgt            1           9   7.7905118224339326E-003           4     1624310           0
</event>
<event>
      6   9999  3.45752E-01  6.97129E+00 -1.00000E+00  2.05366E-01
      21    -1     0     0   501   502  0.000000000E+00  0.000000000E+00  7.296984329E+00  7.296984329E+00  0.000000000E+00  0.00000E+00  9.000E+00
      21    -1     0     0   502   511  0.000000000E+00  0.000000000E+00 -7.646095694E+02  7.646095694E+02  0.000000000E+00  0.00000E+00  9.000E+00
      25     1     1     2     0     0  1.041726023E+01  7.068670701E+00 -6.399500191E+02  6.521657945E+02  1.250028446E+02  0.00000E+00  9.000E+00
       5     1     1     2   501     0  2.971991022E-01 -2.535247170E-01 -8.588688433E+00  9.822457487E+00  4.750000000E+00  0.00000E+00  9.000E+00
      -5     1     1     2     0   503 -3.793827522E+00 -5.976277390E+00 -4.860420696E+01  4.934612906E+01  4.750000000E+00  0.00000E+00  9.000E+00
      21     1     1     2   503   511 -6.920631806E+00 -8.388685940E-01 -6.016967063E+01  6.057217272E+01  6.743495762E-07  0.00000E+00  9.000E+00
#rwgt            1           9   5.0786918490792414E-005           4     1626216           0
</event>
<event>
      6   9999 -3.45752E-01  4.30650E+00 -1.00000E+00  2.41395E-01
      21    -1     0     0   501   512  0.000000000E+00  0.000000000E+00  3.542105686E+01  3.542105686E+01  0.000000000E+00  0.00000E+00  9.000E+00
      21    -1     0     0   502   503  0.000000000E+00  0.000000000E+00 -1.017267381E+03  1.017267381E+03  0.000000000E+00  0.00000E+00  9.000E+00
      25     1     1     2     0     0  3.839408499E+01 -2.088584182E+00 -9.221143520E+02  9.313425462E+02  1.250023684E+02  0.00000E+00  9.000E+00
       5     1     1     2   501     0 -3.954849684E+00 -1.927899302E-01  1.232130369E+01  1.378604471E+01  4.750000000E+00  0.00000E+00  9.000E+00
      -5     1     1     2     0   503 -3.834000124E+01  4.565488631E-01 -8.529394193E+01  9.363644142E+01  4.750000000E+00  0.00000E+00  9.000E+00
      21     1     1     2   502   512  3.900765927E+00  1.824825249E+00  1.324066653E+01  1.392340519E+01  4.768371582E-07  0.00000E+00  9.000E+00
#rwgt            1           9  -4.7783352992809115E-004           4     1628752           0
</event>
<event>
      6   9999  3.45752E-01  2.74741E+00 -1.00000E+00  2.87299E-01
      21    -1     0     0   501   511  0.000000000E+00  0.000000000E+00  5.735322037E+01  5.735322037E+01  0.000000000E+00  0.00000E+00  9.000E+00
      21    -1     0     0   502   503  0.000000000E+00  0.000000000E+00 -1.296134508E+03  1.296134508E+03  0.000000000E+00  0.00000E+00  9.000E+00
      25     1     1     2     0     0  3.461094358E+01 -9.890443550E+00 -3.454394283E+02  3.691174594E+02  1.249942475E+02  0.00000E+00  9.000E+00
       5     1     1     2   501     0  3.888277955E-01  8.418484014E+00  3.322705703E+01  3.460667391E+01  4.750000000E+00  0.00000E+00  9.000E+00
      -5     1     1     2     0   503 -3.691441700E+01 -4.984141708E-01 -9.376289228E+02  9.383674557E+02  4.750000000E+00  0.00000E+00  9.000E+00
      21     1     1     2   502   511  1.914645629E+00  1.970373707E+00  1.106000664E+01  1.139613914E+01  4.298152060E-07  0.00000E+00  9.000E+00
#rwgt            1           9   1.7531108856862896E-004           4     1634257           0
</event>
<event>
      6   9999  3.45752E-01  9.18020E+00 -1.00000E+00  1.91193E-01
      21    -1     0     0   501   512  0.000000000E+00  0.000000000E+00  1.695221402E+01  1.695221402E+01  0.000000000E+00  0.00000E+00  9.000E+00
      21    -1     0     0   502   503  0.000000000E+00  0.000000000E+00 -7.788501472E+02  7.788501472E+02  0.000000000E+00  0.00000E+00  9.000E+00
      25     1     1     2     0     0  7.301336559E+00  1.589079327E+01 -7.265698872E+02  7.374515437E+02  1.250006065E+02  0.00000E+00  9.000E+00
       5     1     1     2   501     0  1.165582471E+00 -6.828416720E-01  1.506309613E+00  5.162976263E+00  4.750000000E+00  0.00000E+00  9.000E+00
      -5     1     1     2     0   503 -1.091398364E+00 -9.741896395E+00 -4.148891003E+01  4.289507957E+01  4.750000000E+00  0.00000E+00  9.000E+00
      21     1     1     2   502   512 -7.375520666E+00 -5.466055201E+00  4.654554435E+00  1.029276161E+01  7.152557373E-07  0.00000E+00  9.000E+00
#rwgt            1           9   4.8032778142546792E-003           4     1645323           0
</event>
<event>
      6   9999  3.45752E-01  1.50087E+01 -1.00000E+00  1.70350E-01
      21    -1     0     0   502   511  0.000000000E+00  0.000000000E+00  2.603935077E+01  2.603935077E+01  0.000000000E+00  0.00000E+00  9.000E+00
      21    -1     0     0   501   502  0.000000000E+00  0.000000000E+00 -1.074111863E+03  1.074111863E+03  0.000000000E+00  0.00000E+00  9.000E+00
      25     1     1     2     0     0 -1.101735336E+02  2.750653710E+01 -6.864688947E+02  7.069363012E+02  1.249982939E+02  0.00000E+00  9.000E+00
       5     1     1     2   501     0  1.934753401E+01  5.142654741E+00 -2.236739340E+02  2.246182655E+02  4.750000000E+00  0.00000E+00  9.000E+00
      -5     1     1     2     0   503  7.608189740E+01 -2.984356480E+01 -1.139611503E+02  1.403167836E+02  4.750000000E+00  0.00000E+00  9.000E+00
      21     1     1     2   503   511  1.474410222E+01 -2.805627044E+00 -2.396853343E+01  2.827986365E+01  6.743495762E-07  0.00000E+00  9.000E+00
#rwgt            1           9   6.4123300730795571E-002           4     1648354           0
</event>
<event>
      6   9999  3.45752E-01  4.17422E+00 -1.00000E+00  2.44079E-01
      21    -1     0     0   501   502  0.000000000E+00  0.000000000E+00  8.898091980E+01  8.898091980E+01  0.000000000E+00  0.00000E+00  9.000E+00
      21    -1     0     0   512   503  0.000000000E+00  0.000000000E+00 -1.673144446E+03  1.673144446E+03  0.000000000E+00  0.00000E+00  9.000E+00
      25     1     1     2     0     0 -2.915004809E+01  2.572014985E+01 -1.205757285E+03  1.212842680E+03  1.250019471E+02  0.00000E+00  9.000E+00
       5     1     1     2   501     0  2.992954864E+00 -1.204409099E+01  8.423831427E+01  8.527997419E+01  4.750000000E+00  0.00000E+00  9.000E+00
      -5     1     1     2     0   503  2.517230153E+01 -1.773244982E+01 -3.928594450E+02  3.940928705E+02  4.750000000E+00  0.00000E+00  9.000E+00
      21     1     1     2   512   502  9.847917053E-01  4.056390970E+00 -6.978511084E+01  6.990984063E+01  9.536743164E-07  0.00000E+00  9.000E+00
#rwgt            1           9   4.9193031932193345E-003           4     1650666           0
</event>
<event>
      6   9999  3.45752E-01  1.26303E+01 -1.00000E+00  1.77108E-01
      21    -1     0     0   501   502  0.000000000E+00  0.000000000E+00  1.826954324E+01  1.826954324E+01  0.000000000E+00  0.00000E+00  9.000E+00
      21    -1     0     0   511   503  0.000000000E+00  0.000000000E+00 -1.746348601E+03  1.746348601E+03  0.000000000E+00  0.00000E+00  9.000E+00
      25     1     1     2     0     0  1.785209509E+01  3.538042225E+00 -1.474203373E+03  1.479608433E+03  1.250372570E+02  0.00000E+00  9.000E+00
       5     1     1     2   501     0 -2.879644250E+00  2.333875050E+00  1.441416326E+01  1.562273748E+01  4.750000000E+00  0.00000E+00  9.000E+00
      -5     1     1     2     0   503 -3.813975703E+00  4.516789034E-02 -1.889433073E+02  1.890414884E+02  4.750000000E+00  0.00000E+00  9.000E+00
      21     1     1     2   511   502 -1.115847514E+01 -5.917085165E+00 -7.934654063E+01  8.034548509E+01  0.000000000E+00  0.00000E+00  9.000E+00
#rwgt            1           9   1.5764659869490671                4     1659338           0
</event>
<event>
      6   9999  3.45752E-01  1.06494E+01 -1.00000E+00  1.84361E-01
      21    -1     0     0   512   502  0.000000000E+00  0.000000000E+00  3.970182623E+02  3.970182623E+02  0.000000000E+00  0.00000E+00  9.000E+00
      21    -1     0     0   502   503  0.000000000E+00  0.000000000E+00 -7.577853424E+01  7.577853424E+01  0.000000000E+00  0.00000E+00  9.000E+00
      25     1     1     2     0     0  5.792354494E+00 -1.317568986E+01 -5.585588562E+00  1.259511613E+02  1.250013842E+02  0.00000E+00  9.000E+00
       5     1     1     2   501     0 -1.199387903E+00  2.406260170E+00  2.627355018E+02  2.627921898E+02  4.750000000E+00  0.00000E+00  9.000E+00
      -5     1     1     2     0   503 -8.004241499E+00  6.811666028E-01 -7.315763686E+00  1.185810981E+01  4.750000000E+00  0.00000E+00  9.000E+00
      21     1     1     2   512   501  3.411274908E+00  1.008826308E+01  7.140557842E+01  7.219533557E+01  9.536743164E-07  0.00000E+00  9.000E+00
#rwgt            1           9   3.3369725399796588E-003           4     1661706           0
</event>
<event>
      6   9999  3.45752E-01  1.14169E+02 -1.00000E+00  1.18039E-01
      21    -1     0     0   511   502  0.000000000E+00  0.000000000E+00  8.056589218E+01  8.056589218E+01  0.000000000E+00  0.00000E+00  9.000E+00
      21    -1     0     0   502   503  0.000000000E+00  0.000000000E+00 -1.100017076E+03  1.100017076E+03  0.000000000E+00  0.00000E+00  9.000E+00
      25     1     1     2     0     0 -1.043931379E+02 -9.988204936E+00 -4.969470527E+02  5.230475704E+02  1.249987851E+02  0.00000E+00  9.000E+00
       5     1     1     2   501     0  1.358414426E+01 -8.479876526E+01 -2.745497165E+02  2.877072625E+02  4.750000000E+00  0.00000E+00  9.000E+00
      -5     1     1     2     0   503  1.850907018E+01  6.427545548E+00 -2.546648479E+02  2.554616337E+02  4.750000000E+00  0.00000E+00  9.000E+00
      21     1     1     2   511   501  7.229992350E+01  8.835942465E+01  6.710432860E+00  1.143665020E+02  2.507648941E-06  0.00000E+00  9.000E+00
#rwgt            1           9   2.2801999443107894E-002           4     1665479           0
</event>
<event>
      6   9999  3.45752E-01  4.65627E+00 -1.00000E+00  2.34941E-01
      21    -1     0     0   501   512  0.000000000E+00  0.000000000E+00  1.217998828E+01  1.217998828E+01  0.000000000E+00  0.00000E+00  9.000E+00
      21    -1     0     0   502   503  0.000000000E+00  0.000000000E+00 -9.841269605E+02  9.841269605E+02  0.000000000E+00  0.00000E+00  9.000E+00
      25     1     1     2     0     0  2.878440569E+01 -4.532273234E+00 -9.127462493E+02  9.217267182E+02  1.250013756E+02  0.00000E+00  9.000E+00
       5     1     1     2   501     0 -8.048958900E-01  8.697570689E-01  2.867580367E+00  5.673610131E+00  4.750000000E+00  0.00000E+00  9.000E+00
      -5     1     1     2     0   503 -2.409029296E+01  1.102280891E+00 -4.571781077E+01  5.190604935E+01  4.750000000E+00  0.00000E+00  9.000E+00
      21     1     1     2   502   512 -3.889216842E+00  2.560235274E+00 -1.635049244E+01  1.700057103E+01  2.384185791E-07  0.00000E+00  9.000E+00
#rwgt            1           9   4.5561477471472773E-005           4     1665862           0
</event>
<event>
      6   9999  3.45752E-01  8.22422E+00 -1.00000E+00  1.96605E-01
      21    -1     0     0   501   502  0.000000000E+00  0.000000000E+00  2.692853323E+01  2.692853323E+01  0.000000000E+00  0.00000E+00  9.000E+00
      -1    -1     0     0     0   503  0.000000000E+00  0.000000000E+00 -1.273402181E+03  1.273402181E+03  0.000000000E+00  0.00000E+00  9.000E+00
      25     1     1     2     0     0 -2.671484273E+01  5.216349168E+01 -3.345261942E+02  3.618931301E+02  1.249966013E+02  0.00000E+00  9.000E+00
       5     1     1     2   501     0 -3.028514572E+00 -3.110476184E+00  1.092334204E+01  1.267788878E+01  4.750000000E+00  0.00000E+00  9.000E+00
      -5     1     1     2     0   503  2.526109859E+01 -5.594846338E+01 -6.893638158E+02  6.921079299E+02  4.750000000E+00  0.00000E+00  9.000E+00
      -1     1     1     2     0   502  4.482258708E+00  6.895447886E+00 -2.335069800E+02  2.336517656E+02  3.814697266E-06  0.00000E+00  9.000E+00
#rwgt            1           9   7.5488766326327651E-005           4     1670723           0
</event>
<event>
      6   9999  3.45752E-01  4.17699E+01 -1.00000E+00  1.39104E-01
      21    -1     0     0   501   502  0.000000000E+00  0.000000000E+00  1.535746049E+02  1.535746049E+02  0.000000000E+00  0.00000E+00  9.000E+00
      21    -1     0     0   511   503  0.000000000E+00  0.000000000E+00 -3.016372956E+02  3.016372956E+02  0.000000000E+00  0.00000E+00  9.000E+00
      25     1     1     2     0     0 -9.813095910E+01 -3.084936214E+01 -1.048849438E+02  1.928989629E+02  1.250111601E+02  0.00000E+00  9.000E+00
       5     1     1     2   501     0 -6.811594950E+00 -8.251442950E-01  7.140456850E+01  7.189056678E+01  4.750000000E+00  0.00000E+00  9.000E+00
      -5     1     1     2     0   503  6.436745833E+01  4.159355317E+01 -9.533007981E+00  7.737334230E+01  4.750000000E+00  0.00000E+00  9.000E+00
      21     1     1     2   511   502  4.057509572E+01 -9.919046733E+00 -1.050493074E+02  1.130490286E+02  1.907348633E-06  0.00000E+00  9.000E+00
#rwgt            1           9   1.5338294355561812E-003           4     1674611           0
</event>
<event>
      6   9999  3.45752E-01  1.21946E+01 -1.00000E+00  1.78552E-01
      21    -1     0     0   512   502  0.000000000E+00  0.000000000E+00  4.578327094E+01  4.578327094E+01  0.000000000E+00  0.00000E+00  9.000E+00
      21    -1     0     0   502   503  0.000000000E+00  0.000000000E+00 -1.183002298E+03  1.183002298E+03  0.000000000E+00  0.00000E+00  9.000E+00
      25     1     1     2     0     0 -2.503521203E+01  2.304584362E+01 -3.171501020E+02  3.425884637E+02  1.249991820E+02  0.00000E+00  9.000E+00
       5     1     1     2   501     0 -1.789893115E+00  1.231887725E+01  2.892068152E+01  3.184221685E+01  4.750000000E+00  0.00000E+00  9.000E+00
      -5     1     1     2     0   503  2.440171116E+01 -2.341330607E+01 -8.353934117E+02  8.360911082E+02  4.750000000E+00  0.00000E+00  9.000E+00
      21     1     1     2   512   501  2.423393990E+00 -1.195141480E+01 -1.359619511E+01  1.826378043E+01  2.920019320E-07  0.00000E+00  9.000E+00
#rwgt            1           9   2.2655068062216111E-002           4     1675945           0
</event>
<event>
      6   9999  3.45752E-01  4.36260E+00 -1.00000E+00  2.40300E-01
      21    -1     0     0   502   503  0.000000000E+00  0.000000000E+00  9.055682348E+00  9.055682348E+00  0.000000000E+00  0.00000E+00  9.000E+00
      21    -1     0     0   501   511  0.000000000E+00  0.000000000E+00 -6.830178970E+02  6.830178970E+02  0.000000000E+00  0.00000E+00  9.000E+00
      25     1     1     2     0     0 -1.256107761E+01 -1.068918481E+01 -4.955204873E+02  5.113082839E+02  1.249942738E+02  0.00000E+00  9.000E+00
       5     1     1     2   501     0  2.919980954E+00  8.358554722E+00 -1.018137224E+02  1.023083002E+02  4.750000000E+00  0.00000E+00  9.000E+00
      -5     1     1     2     0   503  9.403543089E+00  6.686754452E+00 -5.719033203E+01  5.853576587E+01  4.750000000E+00  0.00000E+00  9.000E+00
      21     1     1     2   502   511  2.375535679E-01 -4.356124363E+00 -1.943767295E+01  1.992122940E+01  2.384185791E-07  0.00000E+00  9.000E+00
#rwgt            1           9   1611.4790796582897                4     1679117           0
</event>
<event>
      6   9999  3.45752E-01  1.84166E+01 -1.00000E+00  1.62993E-01
      21    -1     0     0   501   502  0.000000000E+00  0.000000000E+00  2.093802443E+01  2.093802443E+01  0.000000000E+00  0.00000E+00  9.000E+00
      21    -1     0     0   512   503  0.000000000E+00  0.000000000E+00 -2.618424577E+03  2.618424577E+03  0.000000000E+00  0.00000E+00  9.000E+00
      25     1     1     2     0     0  1.651760905E+01  2.266944027E+01 -1.876161905E+02  2.271832698E+02  1.250026727E+02  0.00000E+00  9.000E+00
       5     1     1     2   501     0 -6.754976955E+00  9.389554198E+00 -2.090795074E+02  2.094530887E+02  4.750000000E+00  0.00000E+00  9.000E+00
      -5     1     1     2     0   503 -2.817813823E+01 -3.226097917E+01 -5.050639551E+02  5.068993386E+02  4.750000000E+00  0.00000E+00  9.000E+00
      21     1     1     2   512   502  1.841550614E+01  2.019847016E-01 -1.695726900E+03  1.695826905E+03  2.157918644E-05  0.00000E+00  9.000E+00
#rwgt            1           9   3.5052747398397181E-004           4     1683849           0
</event>
<event>
      6   9999  3.45752E-01  1.70713E+01 -1.00000E+00  1.65643E-01
      21    -1     0     0   501   502  0.000000000E+00  0.000000000E+00  5.034997664E+01  5.034997664E+01  0.000000000E+00  0.00000E+00  9.000E+00
      21    -1     0     0   502   511  0.000000000E+00  0.000000000E+00 -1.014810640E+03  1.014810640E+03  0.000000000E+00  0.00000E+00  9.000E+00
      25     1     1     2     0     0  9.475189006E+00 -1.390236872E+01 -5.597661788E+01  1.379831092E+02  1.249916062E+02  0.00000E+00  9.000E+00
       5     1     1     2   501     0  5.255673518E-01 -8.931915746E-01  3.378359926E+00  5.920289522E+00  4.750000000E+00  0.00000E+00  9.000E+00
      -5     1     1     2     0   503 -5.586105830E+00 -1.695056958E+00  1.551138011E+00  7.684160694E+00  4.750000000E+00  0.00000E+00  9.000E+00
      21     1     1     2   503   511 -4.414650528E+00  1.649061725E+01 -9.134135436E+02  9.135730574E+02  1.078959322E-05  0.00000E+00  9.000E+00
#rwgt            1           9   1.2990222260894531E-003           4     1685884           0
</event>
<event>
      6   9999  3.45752E-01  1.90239E+01 -1.00000E+00  1.61887E-01
      21    -1     0     0   501   502  0.000000000E+00  0.000000000E+00  5.837141593E+01  5.837141593E+01  0.000000000E+00  0.00000E+00  9.000E+00
      21    -1     0     0   512   503  0.000000000E+00  0.000000000E+00 -1.435159830E+03  1.435159830E+03  0.000000000E+00  0.00000E+00  9.000E+00
      25     1     1     2     0     0 -1.459193967E+02  2.001966304E+01 -4.593766756E+02  4.983415848E+02  1.249965911E+02  0.00000E+00  9.000E+00
       5     1     1     2   501     0 -8.238239034E+00  5.960971384E+00  3.150815083E+01  3.344738900E+01  4.750000000E+00  0.00000E+00  9.000E+00
      -5     1     1     2     0   503  1.352458336E+02 -2.391837282E+01 -8.236819777E+02  8.350677139E+02  4.750000000E+00  0.00000E+00  9.000E+00
      21     1     1     2   512   502  1.891180216E+01 -2.062261597E+00 -1.252379114E+02  1.266745580E+02  1.907348633E-06  0.00000E+00  9.000E+00
#rwgt            1           9   2.7205158664053075E-003           4     1687507           0
</event>
<event>
      6   9999  3.45752E-01  3.56748E+00 -1.00000E+00  2.58607E-01
      21    -1     0     0   501   502  0.000000000E+00  0.000000000E+00  5.452844121E+02  5.452844121E+02  0.000000000E+00  0.00000E+00  9.000E+00
      21    -1     0     0   511   503  0.000000000E+00  0.000000000E+00 -7.977504027E+01  7.977504027E+01  0.000000000E+00  0.00000E+00  9.000E+00
      25     1     1     2     0     0  7.070832370E+01 -7.113564565E+01  5.132358699E+01  1.682840525E+02  1.250018585E+02  0.00000E+00  9.000E+00
       5     1     1     2   501     0  8.082051113E-01  3.616135187E+00  3.046903083E+02  3.047498583E+02  4.750000000E+00  0.00000E+00  9.000E+00
      -5     1     1     2     0   503 -7.477527875E+01  6.897123252E+01  1.066484736E+02  1.474612921E+02  4.750000000E+00  0.00000E+00  9.000E+00
      21     1     1     2   511   502  3.258749934E+00 -1.451722056E+00  2.847002820E+00  4.564249458E+00  5.960464478E-08  0.00000E+00  9.000E+00
#rwgt            1           9   8.1568279220986829E-005           4     1690375           0
</event>
<event>
      6   9999 -3.45752E-01  1.72778E+01 -1.00000E+00  1.65217E-01
      21    -1     0     0   501   502  0.000000000E+00  0.000000000E+00  2.557051427E+01  2.557051427E+01  0.000000000E+00  0.00000E+00  9.000E+00
      21    -1     0     0   502   512  0.000000000E+00  0.000000000E+00 -1.123842283E+03  1.123842283E+03  0.000000000E+00  0.00000E+00  9.000E+00
      25     1     1     2     0     0  3.509387979E+01 -4.190261968E+01 -8.389008912E+02  8.499216692E+02  1.249989143E+02  0.00000E+00  9.000E+00
       5     1     1     2   501     0 -2.989346346E+01 -1.062041207E+01 -1.889177567E+00  3.213321960E+01  4.750000000E+00  0.00000E+00  9.000E+00
      -5     1     1     2     0   503 -2.225509861E+01  4.975521043E+01 -1.971383635E+02  2.045897535E+02  4.750000000E+00  0.00000E+00  9.000E+00
      21     1     1     2   503   512  1.705468228E+01  2.767821328E+00 -6.034333670E+01  6.276815520E+01  9.536743164E-07  0.00000E+00  9.000E+00
#rwgt            1           9  -1.6149685288301765                4     1697565           0
</event>
<event>
      6   9999  3.45752E-01  5.42888E+00 -1.00000E+00  2.20293E-01
      21    -1     0     0   511   502  0.000000000E+00  0.000000000E+00  5.894047676E+01  5.894047676E+01  0.000000000E+00  0.00000E+00  9.000E+00
      21    -1     0     0   502   503  0.000000000E+00  0.000000000E+00 -8.158235092E+02  8.158235092E+02  0.000000000E+00  0.00000E+00  9.000E+00
      25     1     1     2     0     0  7.616437578E+00  6.896056053E-01 -6.578592567E+02  6.696729566E+02  1.249983259E+02  0.00000E+00  9.000E+00
       5     1     1     2   501     0 -1.605545622E+00  2.793925405E-02  3.750898613E+00  6.261812657E+00  4.750000000E+00  0.00000E+00  9.000E+00
      -5     1     1     2     0   503 -6.600297011E+00 -6.114336425E+00 -1.504762008E+02  1.508197552E+02  4.750000000E+00  0.00000E+00  9.000E+00
      21     1     1     2   511   501  5.894050546E-01  5.396791565E+00  4.770152654E+01  4.800946149E+01  1.348699152E-06  0.00000E+00  9.000E+00
#rwgt            1           9   2.9075254835123684E-004           4     1699692           0
</event>
<event>
      6   9999  3.45752E-01  4.31976E+01 -1.00000E+00  1.38276E-01
      21    -1     0     0   501   512  0.000000000E+00  0.000000000E+00  1.950607151E+01  1.950607151E+01  0.000000000E+00  0.00000E+00  9.000E+00
      21    -1     0     0   502   503  0.000000000E+00  0.000000000E+00 -9.537204785E+02  9.537204785E+02  0.000000000E+00  0.00000E+00  9.000E+00
      25     1     1     2     0     0  3.263665463E+01 -7.330293010E+00 -4.251699420E+02  4.444282457E+02  1.250124058E+02  0.00000E+00  9.000E+00
       5     1     1     2   501     0  2.616547564E+00 -4.620675021E+00 -5.524900115E-01  7.145957180E+00  4.750000000E+00  0.00000E+00  9.000E+00
      -5     1     1     2     0   503 -2.415598095E+01 -2.979692942E+01 -4.326334954E+02  4.343566187E+02  4.750000000E+00  0.00000E+00  9.000E+00
      21     1     1     2   502   512 -1.109722124E+01  4.174789745E+01 -7.585847957E+01  8.729572833E+01  1.348699152E-06  0.00000E+00  9.000E+00
#rwgt            1           9   2.8861118678828401E-002           4     1703794           0
</event>
<event>
      6   9999 -3.45752E-01  5.70461E+00 -1.00000E+00  2.17158E-01
      21    -1     0     0   501   502  0.000000000E+00  0.000000000E+00  9.585405809E+00  9.585405809E+00  0.000000000E+00  0.00000E+00  9.000E+00
      21    -1     0     0   502   511  0.000000000E+00  0.000000000E+00 -9.448451765E+02  9.448451765E+02  0.000000000E+00  0.00000E+00  9.000E+00
      25     1     1     2     0     0  4.918455972E+00  2.193340701E+00 -6.776639086E+02  6.891203709E+02  1.250180411E+02  0.00000E+00  9.000E+00
       5     1     1     2   501     0 -6.258903853E-01 -9.721769969E-01  1.733394385E+00  5.186908808E+00  4.750000000E+00  0.00000E+00  9.000E+00
      -5     1     1     2     0   503 -8.957018503E+00  2.062950285E+00 -7.550740335E+01  7.621295431E+01  4.750000000E+00  0.00000E+00  9.000E+00
      21     1     1     2   503   511  4.664452916E+00 -3.284113989E+00 -1.838218531E+02  1.839103483E+02  2.697398305E-06  0.00000E+00  9.000E+00
#rwgt            1           9  -8.1421875781593437E-003           4     1704899           0
</event>
<event>
      6   9999  3.45752E-01  1.93743E+01 -1.00000E+00  1.61271E-01
      21    -1     0     0   501   502  0.000000000E+00  0.000000000E+00  1.653050725E+01  1.653050725E+01  0.000000000E+00  0.00000E+00  9.000E+00
       2    -1     0     0   502     0  0.000000000E+00  0.000000000E+00 -3.732724147E+03  3.732724147E+03  0.000000000E+00  0.00000E+00  9.000E+00
      25     1     1     2     0     0  9.460914403E-01  1.107754284E+01 -7.642665915E+02  7.744994145E+02  1.249892526E+02  0.00000E+00  9.000E+00
       5     1     1     2   501     0 -7.838478006E-01  2.295304714E+00  1.065438581E+01  1.191475044E+01  4.750000000E+00  0.00000E+00  9.000E+00
      -5     1     1     2     0   503 -1.778517186E+00  5.933908070E+00 -1.584908270E+02  1.586829516E+02  4.750000000E+00  0.00000E+00  9.000E+00
       2     1     1     2   503     0  1.616273546E+00 -1.930675562E+01 -2.804090607E+03  2.804157538E+03  5.285799584E-05  0.00000E+00  9.000E+00
#rwgt            1           9   1.8819482096376483E-004           4     1708178           0
</event>
<event>
      6   9999 -3.45752E-01  3.59531E+01 -1.00000E+00  1.42926E-01
      21    -1     0     0   501   502  0.000000000E+00  0.000000000E+00  9.964442958E+01  9.964442958E+01  0.000000000E+00  0.00000E+00  9.000E+00
       2    -1     0     0   502     0  0.000000000E+00  0.000000000E+00 -2.277628668E+03  2.277628668E+03  0.000000000E+00  0.00000E+00  9.000E+00
      25     1     1     2     0     0 -2.028508492E+01 -5.432130867E+00 -9.544065431E+02  9.627862555E+02  1.249981262E+02  0.00000E+00  9.000E+00
       5     1     1     2   501     0  2.531633473E+01  2.681377569E+01  9.113589646E+01  9.842870260E+01  4.750000000E+00  0.00000E+00  9.000E+00
      -5     1     1     2     0   503  2.013618761E+01  4.293707700E+00 -6.790012113E+02  6.793298974E+02  4.750000000E+00  0.00000E+00  9.000E+00
       2     1     1     2   503     0 -2.516743742E+01 -2.567535252E+01 -6.357123800E+02  6.367282416E+02  0.000000000E+00  0.00000E+00  9.000E+00
#rwgt            1           9  -1.1178509911318817E-003           4     1710073           0
</event>
<event>
      6   9999  3.45752E-01  8.67415E+00 -1.00000E+00  1.93944E-01
       2    -1     0     0   501     0  0.000000000E+00  0.000000000E+00  1.986522467E+03  1.986522467E+03  0.000000000E+00  0.00000E+00  9.000E+00
      21    -1     0     0   502   503  0.000000000E+00  0.000000000E+00 -9.889489330E+02  9.889489330E+02  0.000000000E+00  0.00000E+00  9.000E+00
      25     1     1     2     0     0  6.775590429E+01 -5.427285063E+01 -7.315970941E+02  7.472582469E+02  1.249966986E+02  0.00000E+00  9.000E+00
       5     1     1     2   501     0  2.413995738E+00  8.779754544E-01  2.603028259E+00  5.994703699E+00  4.750000000E+00  0.00000E+00  9.000E+00
      -5     1     1     2     0   503 -6.202410031E+01  5.041380091E+01 -2.413482591E+02  2.542834737E+02  4.750000000E+00  0.00000E+00  9.000E+00
       2     1     1     2   502     0 -8.145799711E+00  2.981074266E+00  1.967915859E+03  1.967934976E+03  2.157918644E-05  0.00000E+00  9.000E+00
#rwgt            1           9   2.4995035514407070E-003           4     1712245           0
</event>
<event>
      6   9999  3.45752E-01  1.93494E+01 -1.00000E+00  1.61314E-01
      21    -1     0     0   511   503  0.000000000E+00  0.000000000E+00  1.867600286E+01  1.867600286E+01  0.000000000E+00  0.00000E+00  9.000E+00
      21    -1     0     0   501   502  0.000000000E+00  0.000000000E+00 -9.970166565E+02  9.970166565E+02  0.000000000E+00  0.00000E+00  9.000E+00
      25     1     1     2     0     0 -7.191836738E+01  3.599273877E+01 -5.223116604E+02  5.430489473E+02  1.249998388E+02  0.00000E+00  9.000E+00
       5     1     1     2   501     0 -1.628137132E+00 -2.779528940E+00 -3.837872108E+01  3.880548084E+01  4.750000000E+00  0.00000E+00  9.000E+00
      -5     1     1     2     0   503  9.266117472E+01 -3.020839712E+01 -3.619897988E+02  3.749104126E+02  4.750000000E+00  0.00000E+00  9.000E+00
      21     1     1     2   511   502 -1.911467021E+01 -3.004812706E+00 -5.566047337E+01  5.892781866E+01  6.743495762E-07  0.00000E+00  9.000E+00
#rwgt            1           9   9.7770075815320815E-004           4     1715812           0
</event>
<event>
      6   9999  3.45752E-01  1.66282E+01 -1.00000E+00  1.66582E-01
      21    -1     0     0   512   502  0.000000000E+00  0.000000000E+00  7.553433786E+01  7.553433786E+01  0.000000000E+00  0.00000E+00  9.000E+00
      21    -1     0     0   502   503  0.000000000E+00  0.000000000E+00 -1.535929343E+02  1.535929343E+02  0.000000000E+00  0.00000E+00  9.000E+00
      25     1     1     2     0     0 -2.538827947E+01  1.937152587E+01 -1.086104695E+02  1.686443307E+02  1.249994218E+02  0.00000E+00  9.000E+00
       5     1     1     2   501     0 -1.899810891E+00  9.389901459E-01  1.387352876E+01  1.481648690E+01  4.750000000E+00  0.00000E+00  9.000E+00
      -5     1     1     2     0   503  1.070755367E+01 -2.156833334E+01  1.543052781E+01  2.899152285E+01  4.750000000E+00  0.00000E+00  9.000E+00
      21     1     1     2   512   501  1.658053670E+01  1.257817324E+00  1.247816511E+00  1.667493171E+01  4.470348358E-08  0.00000E+00  9.000E+00
#rwgt            1           9   8.8436297703458309E-003           4     1717631           0
</event>
<event>
      6   9999  3.45752E-01  9.33564E+00 -1.00000E+00  1.90394E-01
      21    -1     0     0   501   502  0.000000000E+00  0.000000000E+00  3.074309331E+02  3.074309331E+02  0.000000000E+00  0.00000E+00  9.000E+00
      21    -1     0     0   511   503  0.000000000E+00  0.000000000E+00 -5.428213018E+02  5.428213018E+02  0.000000000E+00  0.00000E+00  9.000E+00
      25     1     1     2     0     0 -1.474857092E+01  1.562164178E+01  9.664194638E+01  1.594591125E+02  1.250039469E+02  0.00000E+00  9.000E+00
       5     1     1     2   501     0  1.475521118E+00 -2.063153018E+00  1.636111954E+02  1.636997848E+02  4.750000000E+00  0.00000E+00  9.000E+00
      -5     1     1     2     0   503  2.170006251E+01 -9.541065621E+00  6.363422936E+00  2.499960595E+01  4.750000000E+00  0.00000E+00  9.000E+00
      21     1     1     2   511   502 -8.427012714E+00 -4.017423136E+00 -5.020069334E+02  5.020937317E+02  5.394796609E-06  0.00000E+00  9.000E+00
#rwgt            1           9   5.0206498133399471                4     1719188           0
</event>
<event>
      6   9999  3.45752E-01  1.41330E+01 -1.00000E+00  1.72643E-01
      21    -1     0     0   512   502  0.000000000E+00  0.000000000E+00  3.498144165E+01  3.498144165E+01  0.000000000E+00  0.00000E+00  9.000E+00
      21    -1     0     0   502   503  0.000000000E+00  0.000000000E+00 -8.145315289E+02  8.145315289E+02  0.000000000E+00  0.00000E+00  9.000E+00
      25     1     1     2     0     0  2.906102711E+01 -1.880094609E+01 -5.964373595E+02  6.103762116E+02  1.249943081E+02  0.00000E+00  9.000E+00
       5     1     1     2   501     0 -6.228280764E+00  1.144664432E+01 -4.139923254E+01  4.366092191E+01  4.750000000E+00  0.00000E+00  9.000E+00
      -5     1     1     2     0   503 -3.024671643E+01  1.938649913E+01 -1.646192723E+02  1.685608719E+02  4.750000000E+00  0.00000E+00  9.000E+00
      21     1     1     2   512   501  7.413970086E+00 -1.203219736E+01  2.290577709E+01  2.691496517E+01  7.539457465E-07  0.00000E+00  9.000E+00
#rwgt            1           9   5.4070822801009462E-004           4     1722321           0
</event>
<event>
      6   9999  3.45752E-01  4.85274E+00 -1.00000E+00  2.31669E-01
      21    -1     0     0   511   502  0.000000000E+00  0.000000000E+00  1.185841708E+01  1.185841708E+01  0.000000000E+00  0.00000E+00  9.000E+00
      21    -1     0     0   502   503  0.000000000E+00  0.000000000E+00 -7.747324978E+02  7.747324978E+02  0.000000000E+00  0.00000E+00  9.000E+00
      25     1     1     2     0     0 -4.037319641E+00  3.816035899E+00 -6.937953259E+02  7.049878288E+02  1.250000902E+02  0.00000E+00  9.000E+00
       5     1     1     2   501     0 -4.170371287E-01 -2.275601257E+00  4.248070123E+00  6.779445465E+00  4.750000000E+00  0.00000E+00  9.000E+00
      -5     1     1     2     0   503  5.833786701E+00 -6.192992959E+00 -5.546090133E+01  5.631039252E+01  4.750000000E+00  0.00000E+00  9.000E+00
      21     1     1     2   511   501 -1.379429931E+00  4.652558316E+00 -1.786592361E+01  1.851324802E+01  2.384185791E-07  0.00000E+00  9.000E+00
#rwgt            1           9   3.1785212309183697E-005           4     1724127           0
</event>
<event>
      6   9999  3.45752E-01  1.75168E+01 -1.00000E+00  1.64733E-01
      21    -1     0     0   512   502  0.000000000E+00  0.000000000E+00  2.204201465E+01  2.204201465E+01  0.000000000E+00  0.00000E+00  9.000E+00
      21    -1     0     0   502   503  0.000000000E+00  0.000000000E+00 -1.006629430E+03  1.006629430E+03  0.000000000E+00  0.00000E+00  9.000E+00
      25     1     1     2     0     0  1.867763320E+01  3.694013101E+01 -8.097763819E+02  8.204138828E+02  1.250108920E+02  0.00000E+00  9.000E+00
       5     1     1     2   501     0 -7.881559701E-01 -1.228550704E+00  9.384040795E+00  1.061853325E+01  4.750000000E+00  0.00000E+00  9.000E+00
      -5     1     1     2     0   503 -1.254586540E+01 -5.239345046E+01 -1.359909832E+02  1.463508879E+02  4.750000000E+00  0.00000E+00  9.000E+00
      21     1     1     2   512   501 -5.343611827E+00  1.668187015E+01 -4.820409071E+01  5.128814035E+01  6.743495762E-07  0.00000E+00  9.000E+00
#rwgt            1           9   1.4153934796854774E-004           4     1728508           0
</event>
<event>
      6   9999  3.45752E-01  3.05587E+00 -1.00000E+00  2.74832E-01
      21    -1     0     0   501   502  0.000000000E+00  0.000000000E+00  5.280287084E+02  5.280287084E+02  0.000000000E+00  0.00000E+00  9.000E+00
      21    -1     0     0   502   511  0.000000000E+00  0.000000000E+00 -2.072577501E+01  2.072577501E+01  0.000000000E+00  0.00000E+00  9.000E+00
      25     1     1     2     0     0  1.832794650E+01  1.352668568E+01  3.041547740E+02  3.296282908E+02  1.250031947E+02  0.00000E+00  9.000E+00
       5     1     1     2   501     0 -1.375929486E+00  1.295298977E+00  1.643589575E+02  1.644384395E+02  4.750000000E+00  0.00000E+00  9.000E+00
      -5     1     1     2     0   503 -1.903414758E+01 -1.258522618E+01  4.333785648E+01  4.920791600E+01  4.750000000E+00  0.00000E+00  9.000E+00
      21     1     1     2   503   511  2.082130566E+00 -2.236758483E+00 -4.548654599E+00  5.479837121E+00  5.960464478E-08  0.00000E+00  9.000E+00
#rwgt            1           9   4.8302540559484403E-003           4     1730232           0
</event>
<event>
      6   9999 -3.45752E-01  1.85492E+01 -1.00000E+00  1.62748E-01
      -2    -1     0     0     0   502  0.000000000E+00  0.000000000E+00  2.211691219E+02  2.211691219E+02  0.000000000E+00  0.00000E+00  9.000E+00
      21    -1     0     0   502   503  0.000000000E+00  0.000000000E+00 -8.827497785E+02  8.827497785E+02  0.000000000E+00  0.00000E+00  9.000E+00
      25     1     1     2     0     0  4.352724936E+01 -1.617453139E+01 -7.076747412E+02  7.201280271E+02  1.249983964E+02  0.00000E+00  9.000E+00
       5     1     1     2   501     0 -5.113565870E+00  2.181645441E+01 -2.119265153E+01  3.120572412E+01  4.750000000E+00  0.00000E+00  9.000E+00
      -5     1     1     2     0   503 -4.419706998E+01  1.198262366E+01 -1.385065967E+02  1.459575421E+02  4.750000000E+00  0.00000E+00  9.000E+00
      -2     1     1     2     0   501  5.783386486E+00 -1.762454667E+01  2.057933328E+02  2.066276071E+02  0.000000000E+00  0.00000E+00  9.000E+00
#rwgt            1           9  -3.9006751929173819E-003           4     1736148           0
</event>
<event>
      6   9999  3.45752E-01  6.45455E+01 -1.00000E+00  1.29110E-01
      21    -1     0     0   501   502  0.000000000E+00  0.000000000E+00  2.977556863E+03  2.977556863E+03  0.000000000E+00  0.00000E+00  9.000E+00
      21    -1     0     0   511   503  0.000000000E+00  0.000000000E+00 -2.801282514E+02  2.801282514E+02  0.000000000E+00  0.00000E+00  9.000E+00
      25     1     1     2     0     0  1.646500800E+02  2.921246053E+01  3.059129242E+02  3.703664052E+02  1.250021607E+02  0.00000E+00  9.000E+00
       5     1     1     2   501     0 -2.156794898E+00 -1.156647691E+01  2.302006361E+03  2.302041330E+03  4.750000000E+00  0.00000E+00  9.000E+00
      -5     1     1     2     0   503 -1.429227204E+02 -7.915304582E+01  3.127547561E+02  3.528883799E+02  4.750000000E+00  0.00000E+00  9.000E+00
      21     1     1     2   511   502 -1.957056471E+01  6.150706219E+01 -2.232454292E+02  2.323890001E+02  8.946258087E-06  0.00000E+00  9.000E+00
#rwgt            1           9   8.2850803140520671E-004           4     1737983           0
</event>
<event>
      6   9999  3.45752E-01  1.46699E+01 -1.00000E+00  1.71213E-01
      21    -1     0     0   501   502  0.000000000E+00  0.000000000E+00  3.029624684E+03  3.029624684E+03  0.000000000E+00  0.00000E+00  9.000E+00
      21    -1     0     0   502   512  0.000000000E+00  0.000000000E+00 -1.111151993E+01  1.111151993E+01  0.000000000E+00  0.00000E+00  9.000E+00
      25     1     1     2     0     0  3.230621136E+00  3.107357326E+01  1.514571465E+03  1.520043243E+03  1.250149316E+02  0.00000E+00  9.000E+00
       5     1     1     2   501     0 -2.379290058E-01 -4.577825692E-01  9.393096903E+02  9.393218421E+02  4.750000000E+00  0.00000E+00  9.000E+00
      -5     1     1     2     0   503 -3.856886406E+00 -4.526024580E+01  5.648560597E+02  5.666994760E+02  4.750000000E+00  0.00000E+00  9.000E+00
      21     1     1     2   503   512  8.641942755E-01  1.464445511E+01 -2.240515384E-01  1.467164260E+01  1.829766123E-06  0.00000E+00  9.000E+00
#rwgt            1           9   1.5885610628196418                4     1739015           0
</event>
<event>
      6   9999  3.45752E-01  1.15939E+01 -1.00000E+00  1.80673E-01
      21    -1     0     0   501   502  0.000000000E+00  0.000000000E+00  1.000334724E+01  1.000334724E+01  0.000000000E+00  0.00000E+00  9.000E+00
      21    -1     0     0   511   503  0.000000000E+00  0.000000000E+00 -1.958882751E+03  1.958882751E+03  0.000000000E+00  0.00000E+00  9.000E+00
      25     1     1     2     0     0  3.311528521E+01  3.761780053E+01 -5.673028035E+02  5.830687313E+02  1.249998144E+02  0.00000E+00  9.000E+00
       5     1     1     2   501     0 -6.143155454E+00 -6.544426277E+00 -8.676472228E+01  8.735701120E+01  4.750000000E+00  0.00000E+00  9.000E+00
      -5     1     1     2     0   503 -1.949298240E+01 -2.221443868E+01 -1.229591946E+02  1.265503207E+02  4.750000000E+00  0.00000E+00  9.000E+00
      21     1     1     2   511   502 -7.479147354E+00 -8.858935576E+00 -1.171852683E+03  1.171910035E+03  0.000000000E+00  0.00000E+00  9.000E+00
#rwgt            1           9   2.1550512969272594E-005           4     1741030           0
</event>
<event>
      6   9999 -3.45752E-01  5.75067E+01 -1.00000E+00  1.31616E-01
      21    -1     0     0   512   503  0.000000000E+00  0.000000000E+00  9.995885107E+01  9.995885107E+01  0.000000000E+00  0.00000E+00  9.000E+00
      21    -1     0     0   501   502  0.000000000E+00  0.000000000E+00 -1.624201582E+03  1.624201582E+03  0.000000000E+00  0.00000E+00  9.000E+00
      25     1     1     2     0     0 -1.738259446E+02 -2.078025005E+02 -4.163789368E+02  5.122512783E+02  1.250304557E+02  0.00000E+00  9.000E+00
       5     1     1     2   501     0  1.891280387E+01 -1.272859741E+01 -3.494838620E+02  3.502588238E+02  4.750000000E+00  0.00000E+00  9.000E+00
      -5     1     1     2     0   503  1.987315476E+02  2.577731023E+02 -7.260386505E+02  7.956732274E+02  4.750000000E+00  0.00000E+00  9.000E+00
      21     1     1     2   512   502 -4.381840684E+01 -3.724200435E+01 -3.234128113E+01  6.597710308E+01  1.261592536E-06  0.00000E+00  9.000E+00
#rwgt            1           9  -1.1048838975564853E-005           4     1742938           0
</event>
<event>
      6   9999 -3.45752E-01  1.50389E+01 -1.00000E+00  1.70274E-01
      21    -1     0     0   501   502  0.000000000E+00  0.000000000E+00  2.537215998E+02  2.537215998E+02  0.000000000E+00  0.00000E+00  9.000E+00
      21    -1     0     0   502   511  0.000000000E+00  0.000000000E+00 -7.061076133E+01  7.061076133E+01  0.000000000E+00  0.00000E+00  9.000E+00
      25     1     1     2     0     0  5.743773674E+00 -9.038365693E+00  1.320947738E+02  1.821763113E+02  1.249979845E+02  0.00000E+00  9.000E+00
       5     1     1     2   501     0 -1.902923244E-01 -3.298953319E+00  8.873853141E+01  8.892698556E+01  4.750000000E+00  0.00000E+00  9.000E+00
      -5     1     1     2     0   503  5.781097077E-01 -1.394889722E+00  5.525233769E+00  7.441144830E+00  4.750000000E+00  0.00000E+00  9.000E+00
      21     1     1     2   503   511 -6.131591057E+00  1.373220873E+01 -4.324770054E+01  4.578791945E+01  6.743495762E-07  0.00000E+00  9.000E+00
#rwgt            1           9  -8.4341480470116704E-004           4     1744608           0
</event>
<event>
      6   9999  3.45752E-01  6.39538E+00 -1.00000E+00  2.10269E-01
      21    -1     0     0   501   502  0.000000000E+00  0.000000000E+00  1.452714436E+03  1.452714436E+03  0.000000000E+00  0.00000E+00  9.000E+00
      21    -1     0     0   512   503  0.000000000E+00  0.000000000E+00 -1.294820589E+02  1.294820589E+02  0.000000000E+00  0.00000E+00  9.000E+00
      25     1     1     2     0     0  1.954842077E+00  3.815316100E+00  8.583758297E+02  8.674407803E+02  1.250042570E+02  0.00000E+00  9.000E+00
       5     1     1     2   501     0  1.189592843E+00 -1.253150814E+00  5.682736176E+02  5.682960958E+02  4.750000000E+00  0.00000E+00  9.000E+00
      -5     1     1     2     0   503  2.844139384E+00 -3.176502822E-01  2.108059524E+01  2.179779865E+01  4.750000000E+00  0.00000E+00  9.000E+00
      21     1     1     2   512   502 -5.988574304E+00 -2.244515004E+00 -1.244976652E+02  1.246618205E+02  5.223489356E-06  0.00000E+00  9.000E+00
#rwgt            1           9   3.1613189688828106E-002           4     1746227           0
</event>
<event>
      6   9999  3.45752E-01  1.05464E+01 -1.00000E+00  1.84792E-01
      21    -1     0     0   501   502  0.000000000E+00  0.000000000E+00  1.688870824E+02  1.688870824E+02  0.000000000E+00  0.00000E+00  9.000E+00
      21    -1     0     0   502   511  0.000000000E+00  0.000000000E+00 -3.383935838E+02  3.383935838E+02  0.000000000E+00  0.00000E+00  9.000E+00
      25     1     1     2     0     0 -1.152352383E+02  2.052382769E+01  6.013275399E+01  1.814964978E+02  1.249985718E+02  0.00000E+00  9.000E+00
       5     1     1     2   501     0 -2.302707970E+00 -1.009151820E+00  3.182687816E+01  3.227744607E+01  4.750000000E+00  0.00000E+00  9.000E+00
      -5     1     1     2     0   503  1.176421817E+02 -3.006054366E+01 -2.497528484E+02  2.777451476E+02  4.750000000E+00  0.00000E+00  9.000E+00
      21     1     1     2   503   511 -1.042354572E-01  1.054586779E+01 -1.171328506E+01  1.576157478E+01  2.920019320E-07  0.00000E+00  9.000E+00
#rwgt            1           9  0.39724273533441290                4     1749895           0
</event>
<event>
      6   9999  3.45752E-01  1.01525E+01 -1.00000E+00  1.86504E-01
      21    -1     0     0   512   502  0.000000000E+00  0.000000000E+00  1.039596745E+02  1.039596745E+02  0.000000000E+00  0.00000E+00  9.000E+00
      21    -1     0     0   502   503  0.000000000E+00  0.000000000E+00 -1.419465113E+02  1.419465113E+02  0.000000000E+00  0.00000E+00  9.000E+00
      25     1     1     2     0     0  1.784016868E+01 -8.524820348E+00 -1.005149648E+02  1.616141053E+02  1.249996668E+02  0.00000E+00  9.000E+00
       5     1     1     2   501     0 -1.133653925E+00  3.308977379E-01  5.396241704E+01  5.418394243E+01  4.750000000E+00  0.00000E+00  9.000E+00
      -5     1     1     2     0   503 -1.722821561E+01 -1.945210037E+00  8.663098477E+00  1.995512542E+01  4.750000000E+00  0.00000E+00  9.000E+00
      21     1     1     2   512   501  5.217008513E-01  1.013913265E+01 -9.738749385E-02  1.015301270E+01  2.460877822E-07  0.00000E+00  9.000E+00
#rwgt            1           9   6.5694216929594682E-004           4     1753504           0
</event>
<event>
      6   9999  3.45752E-01  1.92322E+01 -1.00000E+00  1.61519E-01
      21    -1     0     0   511   502  0.000000000E+00  0.000000000E+00  3.812488047E+01  3.812488047E+01  0.000000000E+00  0.00000E+00  9.000E+00
      21    -1     0     0   502   503  0.000000000E+00  0.000000000E+00 -1.315395610E+03  1.315395610E+03  0.000000000E+00  0.00000E+00  9.000E+00
      25     1     1     2     0     0  4.808166724E+01  1.470372250E+02 -9.191907353E+02  9.404619959E+02  1.250014623E+02  0.00000E+00  9.000E+00
       5     1     1     2   501     0  2.542273865E-01 -6.203408318E-01  1.149441103E+01  1.245525749E+01  4.750000000E+00  0.00000E+00  9.000E+00
      -5     1     1     2     0   503 -3.947846071E+01 -1.293457393E+02 -3.264085997E+02  3.533468630E+02  4.750000000E+00  0.00000E+00  9.000E+00
      21     1     1     2   511   501 -8.857433918E+00 -1.707114486E+01 -4.316580560E+01  4.725637413E+01  8.259061849E-07  0.00000E+00  9.000E+00
#rwgt            1           9   2.4474705281605526E-004           4     1756214           0
</event>
<event>
      6   9999  3.45752E-01  1.34367E+02 -1.00000E+00  1.15224E-01
      21    -1     0     0   512   502  0.000000000E+00  0.000000000E+00  7.011966581E+01  7.011966581E+01  0.000000000E+00  0.00000E+00  9.000E+00
      21    -1     0     0   502   503  0.000000000E+00  0.000000000E+00 -1.670251058E+03  1.670251058E+03  0.000000000E+00  0.00000E+00  9.000E+00
      25     1     1     2     0     0  8.486707582E+01 -1.643369485E+02 -1.491569223E+03  1.508181879E+03  1.249991229E+02  0.00000E+00  9.000E+00
       5     1     1     2   501     0  1.090727420E+00 -4.213453470E+00 -3.513882207E+00  7.338442928E+00  4.750000000E+00  0.00000E+00  9.000E+00
      -5     1     1     2     0   503 -4.881458389E+01  3.941922169E+01 -2.087357328E+01  6.629485048E+01  4.750000000E+00  0.00000E+00  9.000E+00
      21     1     1     2   512   501 -3.714321935E+01  1.291311803E+02 -8.417471444E+01  1.585555519E+02  1.348699152E-06  0.00000E+00  9.000E+00
#rwgt            1           9   1.1826537648607648E-004           4     1758318           0
</event>
<event>
      6   9999  3.45752E-01  8.08390E+00 -1.00000E+00  1.97480E-01
      21    -1     0     0   501   502  0.000000000E+00  0.000000000E+00  8.033339242E+00  8.033339242E+00  0.000000000E+00  0.00000E+00  9.000E+00
      21    -1     0     0   502   511  0.000000000E+00  0.000000000E+00 -7.556868067E+02  7.556868067E+02  0.000000000E+00  0.00000E+00  9.000E+00
      25     1     1     2     0     0 -6.736029614E+00 -7.155168603E-01 -6.907336095E+02  7.019856788E+02  1.250003515E+02  0.00000E+00  9.000E+00
       5     1     1     2   501     0 -3.422767302E-01  1.928136397E-01 -5.428384066E+00  7.223862127E+00  4.750000000E+00  0.00000E+00  9.000E+00
      -5     1     1     2     0   503 -3.458682798E-01 -2.675901927E+00 -5.280146172E+00  7.597533783E+00  4.750000000E+00  0.00000E+00  9.000E+00
      21     1     1     2   503   511  7.424174624E+00  3.198605147E+00 -4.621132765E+01  4.691307117E+01  0.000000000E+00  0.00000E+00  9.000E+00
#rwgt            1           9   5.9824470959073345E-004           4     1758789           0
</event>
<event>
      6   9999  3.45752E-01  3.35297E+00 -1.00000E+00  2.64858E-01
      21    -1     0     0   501   502  0.000000000E+00  0.000000000E+00  8.333724429E+01  8.333724429E+01  0.000000000E+00  0.00000E+00  9.000E+00
      21    -1     0     0   512   503  0.000000000E+00  0.000000000E+00 -1.581350721E+03  1.581350721E+03  0.000000000E+00  0.00000E+00  9.000E+00
      25     1     1     2     0     0  6.756354414E+00 -1.885948012E+00 -2.028347987E+02  2.383596922E+02  1.249967286E+02  0.00000E+00  9.000E+00
       5     1     1     2   501     0 -1.307089235E+01 -3.577411034E+00  6.454631019E+01  6.612438851E+01  4.750000000E+00  0.00000E+00  9.000E+00
      -5     1     1     2     0   503  9.358832417E+00  6.868584047E+00 -1.346566701E+03  1.346625118E+03  4.750000000E+00  0.00000E+00  9.000E+00
      21     1     1     2   512   502 -3.044294483E+00 -1.405225002E+00 -1.315828702E+01  1.357876664E+01  0.000000000E+00  0.00000E+00  9.000E+00
#rwgt            1           9   1.2466967180110862E-003           4     1761796           0
</event>
<event>
      6   9999  3.45752E-01  1.63104E+01 -1.00000E+00  1.67278E-01
      21    -1     0     0   501   502  0.000000000E+00  0.000000000E+00  9.202149478E+02  9.202149478E+02  0.000000000E+00  0.00000E+00  9.000E+00
      21    -1     0     0   502   511  0.000000000E+00  0.000000000E+00 -1.017016856E+03  1.017016856E+03  0.000000000E+00  0.00000E+00  9.000E+00
      25     1     1     2     0     0 -8.776189807E+00  1.118569102E+01  2.960715484E+02  3.216970621E+02  1.250139863E+02  0.00000E+00  9.000E+00
       5     1     1     2   501     0  5.915775790E-01  3.434191173E+00  5.926633491E+02  5.926926282E+02  4.750000000E+00  0.00000E+00  9.000E+00
      -5     1     1     2     0   503  1.459943891E+00  2.396952967E-01  1.825347905E+01  1.891932576E+01  4.750000000E+00  0.00000E+00  9.000E+00
      21     1     1     2   503   511  6.724668337E+00 -1.485957749E+01 -1.003790285E+03  1.003922788E+03  1.868812365E-05  0.00000E+00  9.000E+00
#rwgt            1           9   1.2642589208559346E-004           4     1770713           0
</event>
<event>
      6   9999  3.45752E-01  2.23529E+01 -1.00000E+00  1.56609E-01
      21    -1     0     0   501   502  0.000000000E+00  0.000000000E+00  2.212368721E+03  2.212368721E+03  0.000000000E+00  0.00000E+00  9.000E+00
      21    -1     0     0   512   503  0.000000000E+00  0.000000000E+00 -7.436473889E+01  7.436473889E+01  0.000000000E+00  0.00000E+00  9.000E+00
      25     1     1     2     0     0  1.118523351E+02 -7.741114805E+01  1.435702014E+02  2.339682461E+02  1.250012270E+02  0.00000E+00  9.000E+00
       5     1     1     2   501     0  3.929887934E+00  6.894985413E+00  1.780122800E+03  1.780146828E+03  4.750000000E+00  0.00000E+00  9.000E+00
      -5     1     1     2     0   503 -1.060039986E+02  5.041544271E+01  2.201337495E+02  2.495195278E+02  4.750000000E+00  0.00000E+00  9.000E+00
      21     1     1     2   512   502 -9.778224403E+00  2.010071993E+01 -5.822768378E+00  2.309885810E+01  1.127772804E-06  0.00000E+00  9.000E+00
#rwgt            1           9   3.6316632928642101E-003           4     1772611           0
</event>
<event>
      6   9999  3.45752E-01  5.71557E+00 -1.00000E+00  2.17039E-01
      21    -1     0     0   501   511  0.000000000E+00  0.000000000E+00  3.175908794E+01  3.175908794E+01  0.000000000E+00  0.00000E+00  9.000E+00
      21    -1     0     0   502   503  0.000000000E+00  0.000000000E+00 -8.836726155E+02  8.836726155E+02  0.000000000E+00  0.00000E+00  9.000E+00
      25     1     1     2     0     0 -5.053708091E+01 -4.583569437E+00 -5.357659732E+02  5.524901515E+02  1.250007352E+02  0.00000E+00  9.000E+00
       5     1     1     2   501     0  1.372003174E+00 -2.562156973E+00  5.627434114E+00  7.916915799E+00  4.750000000E+00  0.00000E+00  9.000E+00
      -5     1     1     2     0   503  5.207210276E+01  2.224655727E+00 -3.358134990E+02  3.398672117E+02  4.750000000E+00  0.00000E+00  9.000E+00
      21     1     1     2   502   511 -2.907025021E+00  4.921070684E+00  1.403851064E+01  1.515742433E+01  2.384185791E-07  0.00000E+00  9.000E+00
#rwgt            1           9   9.6666373238905282E-004           4     1775374           0
</event>
<event>
      6   9999  3.45752E-01  2.90329E+01 -1.00000E+00  1.48764E-01
      -3    -1     0     0     0   502  0.000000000E+00  0.000000000E+00  4.442293319E+01  4.442293319E+01  0.000000000E+00  0.00000E+00  9.000E+00
      21    -1     0     0   502   503  0.000000000E+00  0.000000000E+00 -9.158858789E+02  9.158858789E+02  0.000000000E+00  0.00000E+00  9.000E+00
      25     1     1     2     0     0  5.126341804E+01 -3.608947010E+01 -4.677768810E+02  4.882107943E+02  1.249166979E+02  0.00000E+00  9.000E+00
       5     1     1     2   501     0 -9.844234349E+00  5.431041368E+01 -1.605376700E+02  1.698276655E+02  4.750000000E+00  0.00000E+00  9.000E+00
      -5     1     1     2     0   503 -1.977926409E+01  1.134254144E+00 -2.650944297E+02  2.658761459E+02  4.750000000E+00  0.00000E+00  9.000E+00
      -3     1     1     2     0   501 -2.163991960E+01 -1.935519772E+01  2.194603501E+01  3.639420629E+01  2.158972058E-06  0.00000E+00  9.000E+00
#rwgt            1           9   7.1435201511659122E-002           4     1779757           0
</event>
<event>
      6   9999  3.45752E-01  2.12990E+01 -1.00000E+00  1.58152E-01
      21    -1     0     0   501   511  0.000000000E+00  0.000000000E+00  6.249636976E+01  6.249636976E+01  0.000000000E+00  0.00000E+00  9.000E+00
      21    -1     0     0   502   503  0.000000000E+00  0.000000000E+00 -9.910767346E+02  9.910767346E+02  0.000000000E+00  0.00000E+00  9.000E+00
      25     1     1     2     0     0  7.872107810E+01 -2.909728101E+01 -4.721155094E+02  4.955418698E+02  1.250001223E+02  0.00000E+00  9.000E+00
       5     1     1     2   501     0  9.108948690E+00  2.794579102E+01 -3.179963815E+01  4.356282438E+01  4.750000000E+00  0.00000E+00  9.000E+00
      -5     1     1     2     0   503 -6.712409493E+01 -3.839550903E+00 -4.644638386E+02  4.693288891E+02  4.750000000E+00  0.00000E+00  9.000E+00
      21     1     1     2   502   511 -2.070593186E+01  4.991040893E+00  3.979862134E+01  4.513952109E+01  2.431401974E-06  0.00000E+00  9.000E+00
#rwgt            1           9   8.8788849372053015E-004           4     1780889           0
</event>
<event>
      6   9999  3.45752E-01  1.11787E+01 -1.00000E+00  1.82237E-01
      21    -1     0     0   512   502  0.000000000E+00  0.000000000E+00  1.168588592E+02  1.168588592E+02  0.000000000E+00  0.00000E+00  9.000E+00
      21    -1     0     0   502   503  0.000000000E+00  0.000000000E+00 -1.120751649E+03  1.120751649E+03  0.000000000E+00  0.00000E+00  9.000E+00
      25     1     1     2     0     0 -5.302302414E+00  1.189930286E+00 -9.064624294E+02  9.150566187E+02  1.249997967E+02  0.00000E+00  9.000E+00
       5     1     1     2   501     0  8.659563692E+00 -1.237828596E+01  2.900510088E+01  3.304645796E+01  4.750000000E+00  0.00000E+00  9.000E+00
      -5     1     1     2     0   503  3.714932073E+00  2.531196048E+00 -2.075365446E+02  2.076395616E+02  4.750000000E+00  0.00000E+00  9.000E+00
      21     1     1     2   512   501 -7.072193351E+00  8.657159627E+00  8.110108363E+01  8.186786975E+01  2.132480600E-06  0.00000E+00  9.000E+00
#rwgt            1           9   1.8398909780354598E-002           4     1782717           0
</event>
<event>
      6   9999  3.45752E-01  4.08256E+00 -1.00000E+00  2.46028E-01
      21    -1     0     0   501   502  0.000000000E+00  0.000000000E+00  2.080404603E+01  2.080404603E+01  0.000000000E+00  0.00000E+00  9.000E+00
      21    -1     0     0   511   503  0.000000000E+00  0.000000000E+00 -1.075686442E+03  1.075686442E+03  0.000000000E+00  0.00000E+00  9.000E+00
      25     1     1     2     0     0  2.682969414E-01  5.614948952E+00 -9.467882862E+02  9.550211534E+02  1.250029796E+02  0.00000E+00  9.000E+00
       5     1     1     2   501     0  1.928449489E+00 -3.705384555E+00  1.577346002E+01  1.699450891E+01  4.750000000E+00  0.00000E+00  9.000E+00
      -5     1     1     2     0   503 -4.787140559E+00  1.245935188E+00 -4.686643719E+01  4.736554131E+01  4.750000000E+00  0.00000E+00  9.000E+00
      21     1     1     2   511   502  2.590394129E+00 -3.155499585E+00 -7.700113301E+01  7.710928481E+01  9.536743164E-07  0.00000E+00  9.000E+00
#rwgt            1           9   4.3211175657422471E-004           4     1786130           0
</event>
<event>
      6   9999  3.45752E-01  5.09018E+00 -1.00000E+00  2.24515E-01
      21    -1     0     0   512   502  0.000000000E+00  0.000000000E+00  2.501918358E+01  2.501918358E+01  0.000000000E+00  0.00000E+00  9.000E+00
      21    -1     0     0   502   503  0.000000000E+00  0.000000000E+00 -1.041491598E+03  1.041491598E+03  0.000000000E+00  0.00000E+00  9.000E+00
      25     1     1     2     0     0  4.826679324E+01  4.316793489E+01 -7.279876133E+02  7.414743228E+02  1.250002094E+02  0.00000E+00  9.000E+00
       5     1     1     2   501     0 -4.801293260E+00  1.462750066E+00  1.029310868E+01  1.239768692E+01  4.750000000E+00  0.00000E+00  9.000E+00
      -5     1     1     2     0   503 -4.834253539E+01 -4.608822062E+01 -3.000181308E+02  3.073996846E+02  4.750000000E+00  0.00000E+00  9.000E+00
      21     1     1     2   512   501  4.877035410E+00  1.457535663E+00  1.240221146E+00  5.239087047E+00  1.444721179E-07  0.00000E+00  9.000E+00
#rwgt            1           9   1.1098400232804376E-003           4     1792626           0
</event>
<event>
      6   9999  3.45752E-01  1.47936E+02 -1.00000E+00  1.13625E-01
      21    -1     0     0   511   502  0.000000000E+00  0.000000000E+00  7.013549597E+01  7.013549597E+01  0.000000000E+00  0.00000E+00  9.000E+00
       2    -1     0     0   501     0  0.000000000E+00  0.000000000E+00 -2.561369978E+03  2.561369978E+03  0.000000000E+00  0.00000E+00  9.000E+00
      25     1     1     2     0     0 -3.354615541E+02  9.712962456E+01 -7.657392937E+02  8.508535908E+02  1.250061953E+02  0.00000E+00  9.000E+00
       5     1     1     2   501     0 -7.824700790E+00  6.108332559E+00  5.304991186E+00  1.221650935E+01  4.750000000E+00  0.00000E+00  9.000E+00
      -5     1     1     2     0   502  2.092700701E+02 -4.058990817E+01 -9.353193325E+02  9.593155472E+02  4.750000000E+00  0.00000E+00  9.000E+00
       2     1     1     2   511     0  1.340161848E+02 -6.264804895E+01 -7.954808474E+02  8.091198269E+02  1.078959322E-05  0.00000E+00  9.000E+00
#rwgt            1           3   3.1090812077733117E-007           4     1797337           0
</event>
<event>
      6   9999  3.45752E-01  8.44630E+00 -1.00000E+00  1.95264E-01
      21    -1     0     0   512   502  0.000000000E+00  0.000000000E+00  4.835752680E+00  4.835752680E+00  0.000000000E+00  0.00000E+00  9.000E+00
      21    -1     0     0   502   503  0.000000000E+00  0.000000000E+00 -2.302999410E+03  2.302999410E+03  0.000000000E+00  0.00000E+00  9.000E+00
      25     1     1     2     0     0  4.483807586E+01 -2.086623002E+01 -1.937127698E+03  1.941786247E+03  1.249970426E+02  0.00000E+00  9.000E+00
       5     1     1     2   501     0  3.176548140E-02  3.200735126E-01 -6.511635434E+00  8.066433668E+00  4.750000000E+00  0.00000E+00  9.000E+00
      -5     1     1     2     0   503 -3.706317055E+01  1.732188913E+01 -2.962505164E+02  2.990997450E+02  4.750000000E+00  0.00000E+00  9.000E+00
      21     1     1     2   512   501 -7.806670783E+00  3.224267379E+00 -5.827380806E+01  5.888273698E+01  6.743495762E-07  0.00000E+00  9.000E+00
#rwgt            1           9   4.0175441970259884E-004           4     1798522           0
</event>
<event>
      6   9999  3.45752E-01  1.82544E+01 -1.00000E+00  1.63298E-01
      21    -1     0     0   501   502  0.000000000E+00  0.000000000E+00  1.524722407E+01  1.524722407E+01  0.000000000E+00  0.00000E+00  9.000E+00
      21    -1     0     0   511   503  0.000000000E+00  0.000000000E+00 -1.164203700E+03  1.164203700E+03  0.000000000E+00  0.00000E+00  9.000E+00
      25     1     1     2     0     0 -8.577735825E+00  6.295714054E+01 -5.382930337E+02  5.562568178E+02  1.250003126E+02  0.00000E+00  9.000E+00
       5     1     1     2   501     0 -7.883099703E+00 -5.228845978E+00 -1.402915155E+00  1.067776953E+01  4.750000000E+00  0.00000E+00  9.000E+00
      -5     1     1     2     0   503  6.697044063E+00 -4.230453881E+01 -3.559975342E+02  3.585963347E+02  4.750000000E+00  0.00000E+00  9.000E+00
      21     1     1     2   511   502  9.763791465E+00 -1.542375576E+01 -2.532629924E+02  2.539200015E+02  2.697398305E-06  0.00000E+00  9.000E+00
#rwgt            1           9   89.203853192681109                4     1801464           0
</event>
<event>
      6   9999  3.45752E-01  1.25964E+01 -1.00000E+00  1.77218E-01
      21    -1     0     0   502   512  0.000000000E+00  0.000000000E+00  3.629176214E+01  3.629176214E+01  0.000000000E+00  0.00000E+00  9.000E+00
      21    -1     0     0   501   502  0.000000000E+00  0.000000000E+00 -9.170248551E+02  9.170248551E+02  0.000000000E+00  0.00000E+00  9.000E+00
      25     1     1     2     0     0 -2.547507934E+01  5.018579333E+01 -2.500927314E+02  2.852001596E+02  1.250006528E+02  0.00000E+00  9.000E+00
       5     1     1     2   501     0  1.798723276E+01 -5.695638202E+01 -6.207653061E+02  6.236503008E+02  4.750000000E+00  0.00000E+00  9.000E+00
      -5     1     1     2     0   503 -3.338843901E+00  3.321699406E-01 -2.449052117E+01  2.517153835E+01  4.750000000E+00  0.00000E+00  9.000E+00
      21     1     1     2   503   512  1.082669048E+01  6.438418746E+00  1.461546573E+01  1.929461845E+01  3.769728732E-07  0.00000E+00  9.000E+00
#rwgt            1           9   2.6204621765674830E-004           4     1803242           0
</event>
<event>
      6   9999  3.45752E-01  7.83993E+01 -1.00000E+00  1.25104E-01
      21    -1     0     0   501   502  0.000000000E+00  0.000000000E+00  9.614557089E+01  9.614557089E+01  0.000000000E+00  0.00000E+00  9.000E+00
       2    -1     0     0   502     0  0.000000000E+00  0.000000000E+00 -3.425036825E+03  3.425036825E+03  0.000000000E+00  0.00000E+00  9.000E+00
      25     1     1     2     0     0 -1.082855298E+00  4.955890099E+01  1.732925074E+01  1.355816893E+02  1.249993372E+02  0.00000E+00  9.000E+00
       5     1     1     2   501     0  6.032936832E+00  1.189786306E+00  1.710954878E+01  1.879125003E+01  4.750000000E+00  0.00000E+00  9.000E+00
      -5     1     1     2     0   503  6.959478177E+01 -2.646890121E+01 -1.615088475E+03  1.616810867E+03  4.750000000E+00  0.00000E+00  9.000E+00
       2     1     1     2   503     0 -7.454486330E+01 -2.427978608E+01 -1.748241579E+03  1.749998590E+03  0.000000000E+00  0.00000E+00  9.000E+00
#rwgt            1           9   2.4218257883928688E-004           4     1805731           0
</event>
<event>
      6   9999  3.45752E-01  2.98220E+01 -1.00000E+00  1.48005E-01
      21    -1     0     0   501   511  0.000000000E+00  0.000000000E+00  7.096594263E+01  7.096594263E+01  0.000000000E+00  0.00000E+00  9.000E+00
      21    -1     0     0   502   503  0.000000000E+00  0.000000000E+00 -2.705663654E+03  2.705663654E+03  0.000000000E+00  0.00000E+00  9.000E+00
      25     1     1     2     0     0  2.127530531E+01  3.577838497E+00 -1.862617868E+03  1.866932961E+03  1.250116848E+02  0.00000E+00  9.000E+00
       5     1     1     2   501     0 -3.422746027E+01 -1.750539538E+00  5.203303839E+01  6.248666265E+01  4.750000000E+00  0.00000E+00  9.000E+00
      -5     1     1     2     0   503 -1.686962059E+01 -1.719180331E+00 -8.161543754E+02  8.163443309E+02  4.750000000E+00  0.00000E+00  9.000E+00
      21     1     1     2   502   511  2.982177555E+01 -1.081186287E-01 -7.958506097E+00  3.086564119E+01  1.258773332E-06  0.00000E+00  9.000E+00
#rwgt            1           9   2.0113201104452480E-003           4     1806998           0
</event>
<event>
      6   9999  3.45752E-01  4.88312E+00 -1.00000E+00  2.31184E-01
      21    -1     0     0   501   502  0.000000000E+00  0.000000000E+00  1.243929917E+01  1.243929917E+01  0.000000000E+00  0.00000E+00  9.000E+00
      21    -1     0     0   512   503  0.000000000E+00  0.000000000E+00 -9.329013084E+02  9.329013084E+02  0.000000000E+00  0.00000E+00  9.000E+00
      25     1     1     2     0     0  4.520021921E+00  4.648462280E+00 -8.139456146E+02  8.235123545E+02  1.249923822E+02  0.00000E+00  9.000E+00
       5     1     1     2   501     0  1.717497628E-01 -7.039792664E-01  6.663092994E+00  8.214888498E+00  4.750000000E+00  0.00000E+00  9.000E+00
      -5     1     1     2     0   503 -1.017496198E+00 -7.281893066E-01 -4.777945405E+01  4.803128447E+01  4.750000000E+00  0.00000E+00  9.000E+00
      21     1     1     2   512   502 -3.674275485E+00 -3.216293707E+00 -6.540003354E+01  6.558208012E+01  9.536743164E-07  0.00000E+00  9.000E+00
#rwgt            1           9   1.7121070443443191E-004           4     1809596           0
</event>
<event>
      6   9999  3.45752E-01  5.22519E+00 -1.00000E+00  2.22779E-01
      -4    -1     0     0     0   502  0.000000000E+00  0.000000000E+00  1.410418182E+02  1.410418182E+02  0.000000000E+00  0.00000E+00  9.000E+00
      21    -1     0     0   502   503  0.000000000E+00  0.000000000E+00 -9.207738080E+02  9.207738080E+02  0.000000000E+00  0.00000E+00  9.000E+00
      25     1     1     2     0     0  4.120619962E+00  1.875492931E+00 -8.704822062E+02  8.794231579E+02  1.250012892E+02  0.00000E+00  9.000E+00
       5     1     1     2   501     0 -1.847413827E-01  6.969074631E-01  1.202390118E-01  4.805909572E+00  4.750000000E+00  0.00000E+00  9.000E+00
      -5     1     1     2     0   503 -2.417515160E-01  1.123010347E+00 -4.328985878E+01  4.356482491E+01  4.750000000E+00  0.00000E+00  9.000E+00
      -4     1     1     2     0   501 -3.694127063E+00 -3.695410741E+00  1.339198361E+02  1.340217339E+02  4.672030912E-06  0.00000E+00  9.000E+00
#rwgt            1           9  0.24993661176870585                4     1813903           0
</event>
<event>
      6   9999  3.45752E-01  9.96190E+00 -1.00000E+00  1.87368E-01
      21    -1     0     0   501   511  0.000000000E+00  0.000000000E+00  5.652840747E+02  5.652840747E+02  0.000000000E+00  0.00000E+00  9.000E+00
      21    -1     0     0   502   503  0.000000000E+00  0.000000000E+00 -2.713074090E+02  2.713074090E+02  0.000000000E+00  0.00000E+00  9.000E+00
      25     1     1     2     0     0 -6.792940777E+00  1.113864353E+00 -2.345535556E+02  2.658709459E+02  1.249984188E+02  0.00000E+00  9.000E+00
       5     1     1     2   501     0 -3.425707153E-01  3.802619040E+00  5.528042583E+01  5.561533283E+01  4.750000000E+00  0.00000E+00  9.000E+00
      -5     1     1     2     0   503 -2.744517115E+00 -6.191059253E+00 -2.005806168E+01  2.169677228E+01  4.750000000E+00  0.00000E+00  9.000E+00
      21     1     1     2   502   511  9.880028608E+00  1.274575859E+00  4.933078571E+02  4.934084327E+02  0.000000000E+00  0.00000E+00  9.000E+00
#rwgt            1           9  0.11422196994614729                4     1817519           0
</event>
<event>
      6   9999  3.45752E-01  7.60147E+01 -1.00000E+00  1.25723E-01
      21    -1     0     0   501   512  0.000000000E+00  0.000000000E+00  2.832546236E+02  2.832546236E+02  0.000000000E+00  0.00000E+00  9.000E+00
      21    -1     0     0   502   503  0.000000000E+00  0.000000000E+00 -1.323863346E+03  1.323863346E+03  0.000000000E+00  0.00000E+00  9.000E+00
      25     1     1     2     0     0 -4.473145796E+01  2.049267115E+01 -6.005496827E+02  6.153910743E+02  1.250016002E+02  0.00000E+00  9.000E+00
       5     1     1     2   501     0 -3.118405635E+01 -9.043457146E-01  1.534228436E+01  3.508862211E+01  4.750000000E+00  0.00000E+00  9.000E+00
      -5     1     1     2     0   503  2.007002417E+00 -1.818340059E+00 -7.002448985E+02  7.002662457E+02  4.750000000E+00  0.00000E+00  9.000E+00
      21     1     1     2   502   512  7.390851189E+01 -1.776998537E+01  2.448435745E+02  2.563720275E+02  7.629394531E-06  0.00000E+00  9.000E+00
#rwgt            1           9   7.4686252034686395E-004           4     1820416           0
</event>
<event>
      6   9999 -3.45752E-01  5.67763E+01 -1.00000E+00  1.31899E-01
      21    -1     0     0   501   511  0.000000000E+00  0.000000000E+00  2.911965241E+01  2.911965241E+01  0.000000000E+00  0.00000E+00  9.000E+00
      21    -1     0     0   502   503  0.000000000E+00  0.000000000E+00 -1.038100900E+03  1.038100900E+03  0.000000000E+00  0.00000E+00  9.000E+00
      25     1     1     2     0     0 -1.063005872E+02  7.682787682E+01 -7.282522052E+02  7.504454388E+02  1.249589721E+02  0.00000E+00  9.000E+00
       5     1     1     2   501     0 -2.067403884E+00  2.182563961E+00 -2.722149852E+00  6.245826133E+00  4.750000000E+00  0.00000E+00  9.000E+00
      -5     1     1     2     0   503  7.204448027E+01 -3.537380207E+01 -1.824134181E+02  1.993462581E+02  4.750000000E+00  0.00000E+00  9.000E+00
      21     1     1     2   502   511  3.632351080E+01 -4.363663871E+01 -9.559347447E+01  1.111830294E+02  1.348699152E-06  0.00000E+00  9.000E+00
#rwgt            1           9  -1.0360721289136988E-003           4     1821214           0
</event>
<event>
      6   9999  3.45752E-01  5.01109E+00 -1.00000E+00  2.25567E-01
      21    -1     0     0   501   512  0.000000000E+00  0.000000000E+00  4.485660664E+00  4.485660664E+00  0.000000000E+00  0.00000E+00  9.000E+00
      21    -1     0     0   502   503  0.000000000E+00  0.000000000E+00 -2.665212237E+03  2.665212237E+03  0.000000000E+00  0.00000E+00  9.000E+00
      25     1     1     2     0     0 -1.104875121E+00 -3.625912159E+00 -2.569285856E+03  2.572327133E+03  1.249908110E+02  0.00000E+00  9.000E+00
       5     1     1     2   501     0 -2.770021005E+00  3.823188103E-01 -9.419656366E-01  5.591867604E+00  4.750000000E+00  0.00000E+00  9.000E+00
      -5     1     1     2     0   503  5.115185947E-01 -4.710689527E-01 -8.001707003E+01  8.016094781E+01  4.750000000E+00  0.00000E+00  9.000E+00
      21     1     1     2   502   512  3.363377531E+00  3.714662301E+00 -1.048168462E+01  1.161794891E+01  3.371747881E-07  0.00000E+00  9.000E+00
#rwgt            1           9   1.7257454355546219E-002           4     1822345           0
</event>
<event>
      6   9999  3.45752E-01  4.34957E+00 -1.00000E+00  2.40552E-01
      21    -1     0     0   501   502  0.000000000E+00  0.000000000E+00  1.680278841E+01  1.680278841E+01  0.000000000E+00  0.00000E+00  9.000E+00
       1    -1     0     0   502     0  0.000000000E+00  0.000000000E+00 -2.498831230E+03  2.498831230E+03  0.000000000E+00  0.00000E+00  9.000E+00
      25     1     1     2     0     0 -5.132542328E+00  1.475637759E+00 -1.106694371E+03  1.113743776E+03  1.249969915E+02  0.00000E+00  9.000E+00
       5     1     1     2   501     0 -3.643407991E+00  4.029017417E-01  1.141874748E+01  1.289911027E+01  4.750000000E+00  0.00000E+00  9.000E+00
      -5     1     1     2     0   503  1.254818481E+01 -4.043949699E+00 -4.288901941E+01  4.512029429E+01  4.750000000E+00  0.00000E+00  9.000E+00
       1     1     1     2   503     0 -3.772234496E+00  2.165410198E+00 -1.343863799E+03  1.343870838E+03  1.525878906E-05  0.00000E+00  9.000E+00
#rwgt            1           9  0.18236104956522903                4     1826855           0
</event>
<event>
      6   9999  3.45752E-01  7.71675E+00 -1.00000E+00  1.99887E-01
      21    -1     0     0   501   502  0.000000000E+00  0.000000000E+00  3.583291428E+02  3.583291428E+02  0.000000000E+00  0.00000E+00  9.000E+00
      21    -1     0     0   502   511  0.000000000E+00  0.000000000E+00 -3.463320489E+01  3.463320489E+01  0.000000000E+00  0.00000E+00  9.000E+00
      25     1     1     2     0     0  6.524523720E+00  1.185837556E+01  1.179839372E+02  1.724199482E+02  1.250009545E+02  0.00000E+00  9.000E+00
       5     1     1     2   501     0 -3.642382302E+00  9.758239783E-01  1.706129002E+02  1.707206590E+02  4.750000000E+00  0.00000E+00  9.000E+00
      -5     1     1     2     0   503 -8.091879474E+00 -7.141502941E+00  3.930331702E+01  4.103404448E+01  4.750000000E+00  0.00000E+00  9.000E+00
      21     1     1     2   503   511  5.209738057E+00 -5.692696599E+00 -4.204216505E+00  8.787696035E+00  1.032382731E-07  0.00000E+00  9.000E+00
#rwgt            1           9   4.1678893091963883E-003           4     1831984           0
</event>
<event>
      6   9999  3.45752E-01  8.67376E+00 -1.00000E+00  1.93947E-01
      21    -1     0     0   501   502  0.000000000E+00  0.000000000E+00  4.553711529E+01  4.553711529E+01  0.000000000E+00  0.00000E+00  9.000E+00
      21    -1     0     0   502   512  0.000000000E+00  0.000000000E+00 -6.838589700E+02  6.838589700E+02  0.000000000E+00  0.00000E+00  9.000E+00
      25     1     1     2     0     0 -1.419672394E+01  1.789637038E+01 -1.837060523E+02  2.233714346E+02  1.250002285E+02  0.00000E+00  9.000E+00
       5     1     1     2   501     0  1.070176634E+00 -6.860545775E-01  7.787414940E+00  9.209901213E+00  4.750000000E+00  0.00000E+00  9.000E+00
      -5     1     1     2     0   503  1.439764912E+01 -2.579043617E+01  4.130532314E+00  3.020037574E+01  4.750000000E+00  0.00000E+00  9.000E+00
      21     1     1     2   503   512 -1.271101812E+00  8.580120366E+00 -4.665337496E+02  4.666143737E+02  5.394796609E-06  0.00000E+00  9.000E+00
#rwgt            1           9   2.5893023563561984E-003           4     1835370           0
</event>
<event>
      6   9999  3.45752E-01  2.11973E+01 -1.00000E+00  1.58307E-01
      21    -1     0     0   501   511  0.000000000E+00  0.000000000E+00  4.287928116E+01  4.287928116E+01  0.000000000E+00  0.00000E+00  9.000E+00
      21    -1     0     0   502   503  0.000000000E+00  0.000000000E+00 -1.165665618E+03  1.165665618E+03  0.000000000E+00  0.00000E+00  9.000E+00
      25     1     1     2     0     0 -8.119636397E+00  2.942496084E+01 -1.048480495E+03  1.056346287E+03  1.249974965E+02  0.00000E+00  9.000E+00
       5     1     1     2   501     0 -1.469937430E+00 -1.186405289E+00  3.496053918E+01  3.533228090E+01  4.750000000E+00  0.00000E+00  9.000E+00
      -5     1     1     2     0   503 -3.551582445E+00 -1.160618534E+01 -7.806521494E+01  7.914579938E+01  4.750000000E+00  0.00000E+00  9.000E+00
      21     1     1     2   502   511  1.314115627E+01 -1.663237021E+01 -3.120116704E+01  3.772053223E+01  8.920806376E-07  0.00000E+00  9.000E+00
#rwgt            1           9   1.5941531208278095E-005           4     1838511           0
</event>
<event>
      6   9999  3.45752E-01  3.68665E+01 -1.00000E+00  1.42272E-01
      21    -1     0     0   501   502  0.000000000E+00  0.000000000E+00  9.920176648E+01  9.920176648E+01  0.000000000E+00  0.00000E+00  9.000E+00
      21    -1     0     0   502   512  0.000000000E+00  0.000000000E+00 -1.932893794E+03  1.932893794E+03  0.000000000E+00  0.00000E+00  9.000E+00
      25     1     1     2     0     0 -2.805593060E+02 -6.107708739E+01 -3.444682100E+02  4.655395214E+02  1.249990538E+02  0.00000E+00  9.000E+00
       5     1     1     2   501     0  2.444939644E-01 -7.697685748E+00  2.348547542E+01  2.516831736E+01  4.750000000E+00  0.00000E+00  9.000E+00
      -5     1     1     2     0   503  2.557229824E+02  4.130882962E+01 -1.326369713E+03  1.351436214E+03  4.750000000E+00  0.00000E+00  9.000E+00
      21     1     1     2   503   512  2.459182964E+01  2.746594352E+01 -1.863395798E+02  1.899515074E+02  0.000000000E+00  0.00000E+00  9.000E+00
#rwgt            1           9   7.1963707777123534E-002           4     1841389           0
</event>
<event>
      6   9999  3.45752E-01  1.95059E+01 -1.00000E+00  1.61044E-01
      21    -1     0     0   501   502  0.000000000E+00  0.000000000E+00  3.991066530E+02  3.991066530E+02  0.000000000E+00  0.00000E+00  9.000E+00
      21    -1     0     0   502   511  0.000000000E+00  0.000000000E+00 -7.461064211E+02  7.461064211E+02  0.000000000E+00  0.00000E+00  9.000E+00
      25     1     1     2     0     0  3.830029344E+00 -6.132616899E+01 -3.812721070E+02  4.059148357E+02  1.249914640E+02  0.00000E+00  9.000E+00
       5     1     1     2   501     0  1.627489410E+01  1.654711859E+00  3.753271084E+02  3.757134693E+02  4.750000000E+00  0.00000E+00  9.000E+00
      -5     1     1     2     0   503 -9.005997822E+00  4.363104817E+01 -3.485546662E+01  5.676479908E+01  4.750000000E+00  0.00000E+00  9.000E+00
      21     1     1     2   503   511 -1.109892562E+01  1.604040895E+01 -3.061993030E+02  3.068199700E+02  3.814697266E-06  0.00000E+00  9.000E+00
#rwgt            1           9  0.25427925607386193                4     1843300           0
</event>
<event>
      6   9999 -3.45752E-01  1.24657E+01 -1.00000E+00  1.77645E-01
      21    -1     0     0   501   502  0.000000000E+00  0.000000000E+00  3.378026668E+02  3.378026668E+02  0.000000000E+00  0.00000E+00  9.000E+00
      21    -1     0     0   502   512  0.000000000E+00  0.000000000E+00 -6.699448843E+01  6.699448843E+01  0.000000000E+00  0.00000E+00  9.000E+00
      25     1     1     2     0     0 -8.380279481E+00  7.051664658E+00  2.976137247E+02  3.229879370E+02  1.250092928E+02  0.00000E+00  9.000E+00
       5     1     1     2   501     0 -7.673914483E-01  7.239846281E-01  1.451984327E+01  1.531343828E+01  4.750000000E+00  0.00000E+00  9.000E+00
      -5     1     1     2     0   503 -2.983166664E-01  3.586497136E-01  1.137784575E+01  1.233837495E+01  4.750000000E+00  0.00000E+00  9.000E+00
      21     1     1     2   503   512  9.445987596E+00 -8.134299000E+00 -5.270323531E+01  5.415740498E+01  6.743495762E-07  0.00000E+00  9.000E+00
#rwgt            1           9  -1.7665591316349070E-003           4     1846859           0
</event>
<event>
      6   9999  3.45752E-01  7.18024E+00 -1.00000E+00  2.03741E-01
      21    -1     0     0   501   511  0.000000000E+00  0.000000000E+00  4.176606692E+01  4.176606692E+01  0.000000000E+00  0.00000E+00  9.000E+00
      21    -1     0     0   502   503  0.000000000E+00  0.000000000E+00 -1.103613432E+03  1.103613432E+03  0.000000000E+00  0.00000E+00  9.000E+00
      25     1     1     2     0     0 -2.063795312E+00 -8.709632215E+00 -1.048865429E+03  1.056325906E+03  1.250024634E+02  0.00000E+00  9.000E+00
       5     1     1     2   501     0  2.199972546E+00 -4.100820310E-01  5.275102368E+00  7.442932988E+00  4.750000000E+00  0.00000E+00  9.000E+00
      -5     1     1     2     0   503 -2.741084255E+00  2.428651424E+00 -4.934301436E+01  4.970621145E+01  4.750000000E+00  0.00000E+00  9.000E+00
      21     1     1     2   502   511  2.604907020E+00  6.691062822E+00  3.108597618E+01  3.190444761E+01  1.815741803E-06  0.00000E+00  9.000E+00
#rwgt            1           9   1.3192582977284669E-002           4     1848498           0
</event>
<event>
      6   9999  3.45752E-01  1.64341E+01 -1.00000E+00  1.67005E-01
      21    -1     0     0   501   502  0.000000000E+00  0.000000000E+00  1.697441804E+02  1.697441804E+02  0.000000000E+00  0.00000E+00  9.000E+00
      21    -1     0     0   502   512  0.000000000E+00  0.000000000E+00 -3.059076100E+02  3.059076100E+02  0.000000000E+00  0.00000E+00  9.000E+00
      25     1     1     2     0     0 -1.254681995E+01 -2.573176123E+01  6.469274786E+01  1.436296019E+02  1.249990587E+02  0.00000E+00  9.000E+00
       5     1     1     2   501     0  1.803206051E+00  1.288852635E+00  6.213675322E+01  6.235744778E+01  4.750000000E+00  0.00000E+00  9.000E+00
      -5     1     1     2     0   503 -1.732022475E+00  3.514054777E+01 -2.308520305E+02  2.335660088E+02  4.750000000E+00  0.00000E+00  9.000E+00
      21     1     1     2   503   512  1.247563638E+01 -1.069763917E+01 -3.214090017E+01  3.609873198E+01  6.743495762E-07  0.00000E+00  9.000E+00
#rwgt            1           9   1.3612690608564433E-002           4     1851640           0
</event>
<event>
      6   9999  3.45752E-01  8.87458E+00 -1.00000E+00  1.92826E-01
       2    -1     0     0   501     0  0.000000000E+00  0.000000000E+00  3.759519199E+02  3.759519199E+02  0.000000000E+00  0.00000E+00  9.000E+00
      21    -1     0     0   502   503  0.000000000E+00  0.000000000E+00 -1.261564694E+03  1.261564694E+03  0.000000000E+00  0.00000E+00  9.000E+00
      25     1     1     2     0     0 -1.240909645E+01  5.883185407E+00 -1.140742899E+03  1.147653189E+03  1.249995343E+02  0.00000E+00  9.000E+00
       5     1     1     2   501     0  4.997297264E+00  1.267481323E+01  4.163557381E+01  4.406480882E+01  4.750000000E+00  0.00000E+00  9.000E+00
      -5     1     1     2     0   503  3.553296343E+00 -1.056612525E+01 -1.157760505E+02  1.164084417E+02  4.750000000E+00  0.00000E+00  9.000E+00
       2     1     1     2   502     0  3.858502840E+00 -7.991873391E+00  3.292706014E+02  3.293901744E+02  7.629394531E-06  0.00000E+00  9.000E+00
#rwgt            1           9   5.2619162049650017E-003           4     1854119           0
</event>
<event>
      6   9999  3.45752E-01  4.66705E+00 -1.00000E+00  2.34755E-01
      21    -1     0     0   501   511  0.000000000E+00  0.000000000E+00  2.284119978E+01  2.284119978E+01  0.000000000E+00  0.00000E+00  9.000E+00
      21    -1     0     0   502   503  0.000000000E+00  0.000000000E+00 -6.923161507E+02  6.923161507E+02  0.000000000E+00  0.00000E+00  9.000E+00
      25     1     1     2     0     0  8.778512256E+00  1.435854882E+01 -6.109019458E+02  6.237883087E+02  1.250097456E+02  0.00000E+00  9.000E+00
       5     1     1     2   501     0  4.179692738E-01 -3.003921134E-01 -4.746803618E+00  6.734951991E+00  4.750000000E+00  0.00000E+00  9.000E+00
      -5     1     1     2     0   503 -4.844425527E+00 -1.237262770E+01 -6.813633720E+01  6.958213364E+01  4.750000000E+00  0.00000E+00  9.000E+00
      21     1     1     2   502   511 -4.352056003E+00 -1.685529008E+00  1.431013570E+01  1.505195613E+01  1.025477084E-06  0.00000E+00  9.000E+00
#rwgt            1           9   3.0362856458108020E-004           4     1858680           0
</event>
<event>
      6   9999  3.45752E-01  1.67151E+01 -1.00000E+00  1.66395E-01
      21    -1     0     0   501   502  0.000000000E+00  0.000000000E+00  7.906431963E+01  7.906431963E+01  0.000000000E+00  0.00000E+00  9.000E+00
      21    -1     0     0   512   503  0.000000000E+00  0.000000000E+00 -1.709824818E+03  1.709824818E+03  0.000000000E+00  0.00000E+00  9.000E+00
      25     1     1     2     0     0 -9.901382655E+01 -2.228695045E+02 -2.491163392E+02  3.703496590E+02  1.250014625E+02  0.00000E+00  9.000E+00
       5     1     1     2   501     0  1.404589437E+00 -4.767178167E-01  3.640450319E+00  6.165671893E+00  4.750000000E+00  0.00000E+00  9.000E+00
      -5     1     1     2     0   503  1.128620457E+02  2.301833032E+02 -1.247425170E+03  1.273504736E+03  4.750000000E+00  0.00000E+00  9.000E+00
      21     1     1     2   512   502 -1.525280858E+01 -6.837080856E+00 -1.378594388E+02  1.388690704E+02  0.000000000E+00  0.00000E+00  9.000E+00
#rwgt            1           9   9.5781091318395187E-004           4     1862401           0
</event>
<event>
      6   9999  3.45752E-01  3.78252E+00 -1.00000E+00  2.52985E-01
      21    -1     0     0   501   502  0.000000000E+00  0.000000000E+00  1.284890065E+02  1.284890065E+02  0.000000000E+00  0.00000E+00  9.000E+00
      21    -1     0     0   502   511  0.000000000E+00  0.000000000E+00 -2.969308445E+02  2.969308445E+02  0.000000000E+00  0.00000E+00  9.000E+00
      25     1     1     2     0     0 -7.997478690E+00  4.023953931E-01  4.737130195E+01  1.339163386E+02  1.250016956E+02  0.00000E+00  9.000E+00
       5     1     1     2   501     0  3.371721531E-01 -4.775269993E-01  2.724030007E+01  2.765751552E+01  4.750000000E+00  0.00000E+00  9.000E+00
      -5     1     1     2     0   503  4.109977258E+00 -1.229713729E+00  9.395639391E+00  1.136858164E+01  4.750000000E+00  0.00000E+00  9.000E+00
      21     1     1     2   503   511  3.550329279E+00  1.304845335E+00 -2.524490795E+02  2.524774152E+02  2.697398305E-06  0.00000E+00  9.000E+00
#rwgt            1           9   2.9478132358197971E-004           4     1865961           0
</event>
<event>
      6   9999  3.45752E-01  5.81720E+00 -1.00000E+00  2.15947E-01
      21    -1     0     0   501   502  0.000000000E+00  0.000000000E+00  3.395088207E+02  3.395088207E+02  0.000000000E+00  0.00000E+00  9.000E+00
      21    -1     0     0   512   503  0.000000000E+00  0.000000000E+00 -9.228110650E+01  9.228110650E+01  0.000000000E+00  0.00000E+00  9.000E+00
      25     1     1     2     0     0  4.808014982E+01  2.744502397E+01  2.767242432E+01  1.394850920E+02  1.250015907E+02  0.00000E+00  9.000E+00
       5     1     1     2   501     0 -1.288640207E+00  3.834138492E+00  2.209183209E+02  2.210063986E+02  4.750000000E+00  0.00000E+00  9.000E+00
      -5     1     1     2     0   503 -4.364666703E+01 -2.638531086E+01  1.545431827E+01  5.350340760E+01  4.750000000E+00  0.00000E+00  9.000E+00
      21     1     1     2   512   502 -3.144842584E+00 -4.893851607E+00 -1.681734932E+01  1.779502899E+01  0.000000000E+00  0.00000E+00  9.000E+00
#rwgt            1           9   7.3065691584535311E-002           4     1870871           0
</event>
<event>
      6   9999  3.45752E-01  5.07810E+01 -1.00000E+00  1.34428E-01
      21    -1     0     0   501   502  0.000000000E+00  0.000000000E+00  7.292243457E+01  7.292243457E+01  0.000000000E+00  0.00000E+00  9.000E+00
      21    -1     0     0   511   503  0.000000000E+00  0.000000000E+00 -1.253778175E+03  1.253778175E+03  0.000000000E+00  0.00000E+00  9.000E+00
      25     1     1     2     0     0  2.802099891E+00 -4.400374909E+01 -2.586798467E+01  1.350385562E+02  1.249883087E+02  0.00000E+00  9.000E+00
       5     1     1     2   501     0 -3.464490116E-01 -2.306494597E+00  5.474353251E+00  7.613868121E+00  4.750000000E+00  0.00000E+00  9.000E+00
      -5     1     1     2     0   503 -8.232918821E+00 -4.141027010E+00  8.851560752E+00  1.363237634E+01  4.750000000E+00  0.00000E+00  9.000E+00
      21     1     1     2   511   502  5.777267941E+00  5.045127069E+01 -1.169313669E+03  1.170415809E+03  2.642899792E-05  0.00000E+00  9.000E+00
#rwgt            1           9   1.9405561014876813E-003           4     1875416           0
</event>
<event>
      6   9999  3.45752E-01  6.31034E+01 -1.00000E+00  1.29593E-01
      21    -1     0     0   501   502  0.000000000E+00  0.000000000E+00  1.493075492E+03  1.493075492E+03  0.000000000E+00  0.00000E+00  9.000E+00
      21    -1     0     0   512   503  0.000000000E+00  0.000000000E+00 -6.010490210E+02  6.010490210E+02  0.000000000E+00  0.00000E+00  9.000E+00
      25     1     1     2     0     0 -1.178223159E+02 -4.553773017E+01  5.969156118E+02  6.228072207E+02  1.249992144E+02  0.00000E+00  9.000E+00
       5     1     1     2   501     0  1.862117994E+01 -8.006323793E+01  7.959063188E+02  8.001539235E+02  4.750000000E+00  0.00000E+00  9.000E+00
      -5     1     1     2     0   503  5.800443069E+01  1.734013371E+02 -1.747431889E+01  1.837401752E+02  4.750000000E+00  0.00000E+00  9.000E+00
      21     1     1     2   512   502  4.119670523E+01 -4.780036896E+01 -4.833211411E+02  4.874231931E+02  7.629394531E-06  0.00000E+00  9.000E+00
#rwgt            1           9   3.5004893221846273E-002           4     1875852           0
</event>
<event>
      6   9999  3.45752E-01  1.17030E+01 -1.00000E+00  1.80276E-01
      21    -1     0     0   501   502  0.000000000E+00  0.000000000E+00  3.940823164E+01  3.940823164E+01  0.000000000E+00  0.00000E+00  9.000E+00
      21    -1     0     0   511   503  0.000000000E+00  0.000000000E+00 -1.323976177E+03  1.323976177E+03  0.000000000E+00  0.00000E+00  9.000E+00
      25     1     1     2     0     0  1.481442047E+01 -1.268852651E+02 -3.518723786E+02  3.946623521E+02  1.249994551E+02  0.00000E+00  9.000E+00
       5     1     1     2   501     0  1.886481299E+00 -2.266996207E+00  1.289650612E+01  1.405633144E+01  4.750000000E+00  0.00000E+00  9.000E+00
      -5     1     1     2     0   503 -1.947259390E+01  1.177822364E+02 -8.482606765E+02  8.566332791E+02  4.750000000E+00  0.00000E+00  9.000E+00
      21     1     1     2   511   502  2.771692133E+00  1.137002492E+01 -9.733139604E+01  9.803244564E+01  1.907348633E-06  0.00000E+00  9.000E+00
#rwgt            1           9   1.2857003026073239E-004           4     1877450           0
</event>
<event>
      6   9999  3.45752E-01  4.67489E+00 -1.00000E+00  2.34621E-01
      21    -1     0     0   501   502  0.000000000E+00  0.000000000E+00  2.058869407E+02  2.058869407E+02  0.000000000E+00  0.00000E+00  9.000E+00
      21    -1     0     0   512   503  0.000000000E+00  0.000000000E+00 -9.619587579E+01  9.619587579E+01  0.000000000E+00  0.00000E+00  9.000E+00
      25     1     1     2     0     0  4.760664751E+00 -1.669271332E+00  1.474917011E+02  1.934014873E+02  1.249995321E+02  0.00000E+00  9.000E+00
       5     1     1     2   501     0  6.474523096E-01  3.853957165E-01  2.949313336E+01  2.988268963E+01  4.750000000E+00  0.00000E+00  9.000E+00
      -5     1     1     2     0   503 -7.408759357E-01  1.016620997E+00  4.613167515E+00  6.739898361E+00  4.750000000E+00  0.00000E+00  9.000E+00
      21     1     1     2   512   502 -4.667241125E+00  2.672546188E-01 -7.190693712E+01  7.205874111E+01  9.536743164E-07  0.00000E+00  9.000E+00
#rwgt            1           9   8.1389324359918430E-005           4     1880691           0
</event>
<event>
      6   9999  3.45752E-01  1.20636E+01 -1.00000E+00  1.79001E-01
      21    -1     0     0   501   502  0.000000000E+00  0.000000000E+00  1.071966232E+01  1.071966232E+01  0.000000000E+00  0.00000E+00  9.000E+00
      21    -1     0     0   502   511  0.000000000E+00  0.000000000E+00 -8.892262198E+02  8.892262198E+02  0.000000000E+00  0.00000E+00  9.000E+00
      25     1     1     2     0     0  1.618014825E+01 -3.377559354E+00 -7.360913673E+02  7.468124955E+02  1.250007894E+02  0.00000E+00  9.000E+00
       5     1     1     2   501     0  2.639823451E-01 -2.266679284E+00  1.777951649E+00  5.561576550E+00  4.750000000E+00  0.00000E+00  9.000E+00
      -5     1     1     2     0   503 -1.488163727E+01 -6.317775453E+00 -5.379705623E+01  5.637431307E+01  4.750000000E+00  0.00000E+00  9.000E+00
      21     1     1     2   503   511 -1.562493320E+00  1.196201409E+01 -9.039608563E+01  9.119749703E+01  1.651812370E-06  0.00000E+00  9.000E+00
#rwgt            1           9   6.5702469024744303E-003           4     1884491           0
</event>
<event>
      6   9999  3.45752E-01  9.82388E+00 -1.00000E+00  1.88010E-01
      21    -1     0     0   502   512  0.000000000E+00  0.000000000E+00  1.295815834E+01  1.295815834E+01  0.000000000E+00  0.00000E+00  9.000E+00
      21    -1     0     0   501   502  0.000000000E+00  0.000000000E+00 -1.124095078E+03  1.124095078E+03  0.000000000E+00  0.00000E+00  9.000E+00
      25     1     1     2     0     0 -3.739214667E+01 -5.723510954E+00 -3.991901471E+02  4.200103408E+02  1.249999263E+02  0.00000E+00  9.000E+00
       5     1     1     2   501     0  3.076714456E+01 -1.502128354E+00 -5.153139661E+02  5.162556729E+02  4.750000000E+00  0.00000E+00  9.000E+00
      -5     1     1     2     0   503  6.099301164E+00  1.703544491E+01 -1.831613221E+02  1.841142044E+02  4.750000000E+00  0.00000E+00  9.000E+00
      21     1     1     2   503   512  5.257009481E-01 -9.809805597E+00 -1.347148395E+01  1.667301794E+01  3.371747881E-07  0.00000E+00  9.000E+00
#rwgt            1           9   1.5740717656777567E-003           4     1886680           0
</event>
<event>
      6   9999  3.45752E-01  1.69491E+01 -1.00000E+00  1.65898E-01
      21    -1     0     0   501   502  0.000000000E+00  0.000000000E+00  4.223287324E+01  4.223287324E+01  0.000000000E+00  0.00000E+00  9.000E+00
      21    -1     0     0   502   511  0.000000000E+00  0.000000000E+00 -1.304229191E+03  1.304229191E+03  0.000000000E+00  0.00000E+00  9.000E+00
      25     1     1     2     0     0  1.669955454E+01 -7.252711977E-01 -1.195432948E+03  1.202066813E+03  1.250011535E+02  0.00000E+00  9.000E+00
       5     1     1     2   501     0 -4.667557040E+00  1.991144774E+00  3.656185528E+01  3.721669662E+01  4.750000000E+00  0.00000E+00  9.000E+00
      -5     1     1     2     0   503 -6.177116146E-01  1.126352977E+01 -4.445278102E+01  4.610705923E+01  4.750000000E+00  0.00000E+00  9.000E+00
      21     1     1     2   503   511 -1.141428589E+01 -1.252940334E+01 -5.867244338E+01  6.107149484E+01  0.000000000E+00  0.00000E+00  9.000E+00
#rwgt            1           9   1.4632888355341494E-005           4     1889812           0
</event>
<event>
      6   9999  3.45752E-01  4.84109E+00 -1.00000E+00  2.31857E-01
      21    -1     0     0   501   512  0.000000000E+00  0.000000000E+00  2.646986849E+02  2.646986849E+02  0.000000000E+00  0.00000E+00  9.000E+00
      21    -1     0     0   502   503  0.000000000E+00  0.000000000E+00 -2.263320630E+01  2.263320630E+01  0.000000000E+00  0.00000E+00  9.000E+00
      25     1     1     2     0     0 -1.071853236E+00 -1.137255521E+01  1.910392668E+02  2.285871918E+02  1.250024756E+02  0.00000E+00  9.000E+00
       5     1     1     2   501     0  5.758296301E-01 -2.983970963E-01  3.565023643E+01  3.597113396E+01  4.750000000E+00  0.00000E+00  9.000E+00
      -5     1     1     2     0   503  4.060646707E+00  8.395349840E+00  5.612407874E+00  1.187570515E+01  4.750000000E+00  0.00000E+00  9.000E+00
      21     1     1     2   502   512 -3.564623102E+00  3.275602471E+00  9.763567539E+00  1.089786036E+01  2.064765462E-07  0.00000E+00  9.000E+00
#rwgt            1           9   3.6439060850845215E-004           4     1892298           0
</event>
<event>
      6   9999  3.45752E-01  6.24810E+00 -1.00000E+00  2.11636E-01
      21    -1     0     0   501   502  0.000000000E+00  0.000000000E+00  2.001769897E+01  2.001769897E+01  0.000000000E+00  0.00000E+00  9.000E+00
      21    -1     0     0   502   511  0.000000000E+00  0.000000000E+00 -1.285435302E+03  1.285435302E+03  0.000000000E+00  0.00000E+00  9.000E+00
      25     1     1     2     0     0 -8.821545125E+00  4.804526887E+00 -9.648461864E+02  9.729613935E+02  1.249992264E+02  0.00000E+00  9.000E+00
       5     1     1     2   501     0  4.218034021E+00 -2.230905945E+00  1.501584366E+01  1.645620896E+01  4.750000000E+00  0.00000E+00  9.000E+00
      -5     1     1     2     0   503  5.596876058E+00  3.595002834E+00 -9.243769061E+01  9.279837398E+01  4.750000000E+00  0.00000E+00  9.000E+00
      21     1     1     2   503   511 -9.933649550E-01 -6.168623777E+00 -2.231495699E+02  2.232370248E+02  0.000000000E+00  0.00000E+00  9.000E+00
#rwgt            1           9   2.9806855196817491E-004           4     1896128           0
</event>
<event>
      6   9999  3.45752E-01  1.58343E+02 -1.00000E+00  1.12522E-01
      21    -1     0     0   512   502  0.000000000E+00  0.000000000E+00  1.859591700E+01  1.859591700E+01  0.000000000E+00  0.00000E+00  9.000E+00
       2    -1     0     0   501     0  0.000000000E+00  0.000000000E+00 -2.695199646E+03  2.695199646E+03  0.000000000E+00  0.00000E+00  9.000E+00
      25     1     1     2     0     0  8.551051163E+01  6.057572145E+01 -9.160604833E+02  9.304699060E+02  1.250038849E+02  0.00000E+00  9.000E+00
       5     1     1     2   501     0  1.747503114E+01  1.720237074E+01 -3.650145103E+01  4.422913858E+01  4.750000000E+00  0.00000E+00  9.000E+00
      -5     1     1     2     0   502  4.839550287E+00  3.818051320E+01 -9.846120001E+01  1.058222247E+02  4.750000000E+00  0.00000E+00  9.000E+00
       2     1     1     2   512     0 -1.078250931E+02 -1.159586054E+02 -1.625580595E+03  1.633274294E+03  3.051757812E-05  0.00000E+00  9.000E+00
#rwgt            1           3   1.2528036297479573E-005           4     1900112           0
</event>
<event>
      6   9999  3.45752E-01  1.47313E+01 -1.00000E+00  1.71054E-01
      21    -1     0     0   511   502  0.000000000E+00  0.000000000E+00  8.231983638E+01  8.231983638E+01  0.000000000E+00  0.00000E+00  9.000E+00
      21    -1     0     0   502   503  0.000000000E+00  0.000000000E+00 -2.399184921E+03  2.399184921E+03  0.000000000E+00  0.00000E+00  9.000E+00
      25     1     1     2     0     0 -4.189020984E+01  3.847716013E+00 -1.315796875E+03  1.322390457E+03  1.250020346E+02  0.00000E+00  9.000E+00
       5     1     1     2   501     0  2.429169298E-02 -7.883520446E+00  3.058131746E+01  3.193634234E+01  4.750000000E+00  0.00000E+00  9.000E+00
      -5     1     1     2     0   503  3.047591096E+01  1.337817340E+01 -1.078009558E+03  1.078533693E+03  4.750000000E+00  0.00000E+00  9.000E+00
      21     1     1     2   511   501  1.139000719E+01 -9.342368971E+00  4.636003096E+01  4.864426577E+01  3.814697266E-06  0.00000E+00  9.000E+00
#rwgt            1           9   2.6879713532236723E-004           4     1900535           0
</event>
<event>
      6   9999 -3.45752E-01  1.71006E+01 -1.00000E+00  1.65582E-01
      21    -1     0     0   512   502  0.000000000E+00  0.000000000E+00  5.447489240E+01  5.447489240E+01  0.000000000E+00  0.00000E+00  9.000E+00
      21    -1     0     0   502   503  0.000000000E+00  0.000000000E+00 -2.624733850E+02  2.624733850E+02  0.000000000E+00  0.00000E+00  9.000E+00
      25     1     1     2     0     0  3.710171476E+01  3.633702272E+01 -1.897010033E+02  2.330398932E+02  1.249968187E+02  0.00000E+00  9.000E+00
       5     1     1     2   501     0 -3.530338474E+01 -1.473042232E+01 -2.881115489E+01  4.812441649E+01  4.750000000E+00  0.00000E+00  9.000E+00
      -5     1     1     2     0   503 -8.730195285E-01 -4.531048486E+00 -8.129744386E+00  1.048559999E+01  4.750000000E+00  0.00000E+00  9.000E+00
      21     1     1     2   512   501 -9.253104919E-01 -1.707555192E+01  1.864341001E+01  2.529836773E+01  5.840038640E-07  0.00000E+00  9.000E+00
#rwgt            1           9 -0.12094240673737221                4     1903399           0
</event>
<event>
      6   9999  3.45752E-01  1.75792E+01 -1.00000E+00  1.64608E-01
      21    -1     0     0   511   502  0.000000000E+00  0.000000000E+00  1.770054283E+01  1.770054283E+01  0.000000000E+00  0.00000E+00  9.000E+00
      21    -1     0     0   502   503  0.000000000E+00  0.000000000E+00 -8.197042678E+02  8.197042678E+02  0.000000000E+00  0.00000E+00  9.000E+00
      25     1     1     2     0     0 -2.052055811E+00 -2.774649341E+01 -6.513839862E+02  6.638534552E+02  1.250049342E+02  0.00000E+00  9.000E+00
       5     1     1     2   501     0 -1.498384332E+00 -8.822852606E-01  8.114965338E+00  9.562360865E+00  4.750000000E+00  0.00000E+00  9.000E+00
      -5     1     1     2     0   503 -1.064275094E+01  1.825661740E+01 -1.116092830E+02  1.136915423E+02  4.750000000E+00  0.00000E+00  9.000E+00
      21     1     1     2   511   501  1.419319109E+01  1.037216126E+01 -4.712542108E+01  5.029745236E+01  0.000000000E+00  0.00000E+00  9.000E+00
#rwgt            1           9   8.7983029595793028                4     1904842           0
</event>
<event>
      6   9999 -3.45752E-01  1.79724E+01 -1.00000E+00  1.63837E-01
      21    -1     0     0   501   502  0.000000000E+00  0.000000000E+00  5.206984231E+01  5.206984231E+01  0.000000000E+00  0.00000E+00  9.000E+00
       2    -1     0     0   502     0  0.000000000E+00  0.000000000E+00 -1.974727470E+03  1.974727470E+03  0.000000000E+00  0.00000E+00  9.000E+00
      25     1     1     2     0     0 -2.129704410E-01  1.311540079E+01 -1.244767651E+03  1.251095737E+03  1.249879208E+02  0.00000E+00  9.000E+00
       5     1     1     2   501     0  1.071651791E+01  1.577137900E+00  4.625855542E+01  4.774670218E+01  4.750000000E+00  0.00000E+00  9.000E+00
      -5     1     1     2     0   503  1.880681818E-01 -2.462269722E-01 -1.370545776E+00  4.953472831E+00  4.750000000E+00  0.00000E+00  9.000E+00
       2     1     1     2   503     0 -1.069161565E+01 -1.444631172E+01 -7.227779868E+02  7.230014003E+02  7.629394531E-06  0.00000E+00  9.000E+00
#rwgt            1           9 -0.29140316572490160                4     1906570           0
</event>
<event>
      6   9999 -3.45752E-01  1.77340E+01 -1.00000E+00  1.64302E-01
      21    -1     0     0   511   502  0.000000000E+00  0.000000000E+00  3.079984221E+02  3.079984221E+02  0.000000000E+00  0.00000E+00  9.000E+00
      21    -1     0     0   502   503  0.000000000E+00  0.000000000E+00 -7.995989676E+01  7.995989676E+01  0.000000000E+00  0.00000E+00  9.000E+00
      25     1     1     2     0     0  9.411298107E-01  3.352435438E+00 -2.540182374E+01  1.276031046E+02  1.250007004E+02  0.00000E+00  9.000E+00
       5     1     1     2   501     0  1.237023873E+01 -1.254554204E+00  1.945779038E+02  1.950326123E+02  4.750000000E+00  0.00000E+00  9.000E+00
      -5     1     1     2     0   503  4.421470885E+00 -1.892964181E+00  4.449782281E+00  8.092946344E+00  4.750000000E+00  0.00000E+00  9.000E+00
      21     1     1     2   511   501 -1.773283942E+01 -2.049170524E-01  5.441266296E+01  5.722965556E+01  6.743495762E-07  0.00000E+00  9.000E+00
#rwgt            1           9  -2.8891344863095375E-004           4     1909504           0
</event>
<event>
      6   9999  3.45752E-01  2.02460E+01 -1.00000E+00  1.59806E-01
      21    -1     0     0   501   512  0.000000000E+00  0.000000000E+00  1.021525115E+01  1.021525115E+01  0.000000000E+00  0.00000E+00  9.000E+00
      21    -1     0     0   502   503  0.000000000E+00  0.000000000E+00 -7.309288828E+02  7.309288828E+02  0.000000000E+00  0.00000E+00  9.000E+00
      25     1     1     2     0     0  1.211536151E+01  1.868873392E+01 -6.384537764E+02  6.509558163E+02  1.249967977E+02  0.00000E+00  9.000E+00
       5     1     1     2   501     0  1.421044618E+00  1.994026719E+00 -2.959198045E+00  6.108589316E+00  4.750000000E+00  0.00000E+00  9.000E+00
      -5     1     1     2     0   503 -5.712037731E+00 -2.009796950E+00 -2.154616801E+01  2.287939061E+01  4.750000000E+00  0.00000E+00  9.000E+00
      21     1     1     2   502   512 -7.824368397E+00 -1.867296369E+01 -5.775448918E+01  6.120033770E+01  1.507891493E-06  0.00000E+00  9.000E+00
#rwgt            1           9   5.1491469485426928E-004           4     1912120           0
</event>
<event>
      6   9999 -3.45752E-01  2.77323E+01 -1.00000E+00  1.50081E-01
      21    -1     0     0   501   502  0.000000000E+00  0.000000000E+00  2.019020802E+01  2.019020802E+01  0.000000000E+00  0.00000E+00  9.000E+00
      21    -1     0     0   511   503  0.000000000E+00  0.000000000E+00 -1.190165579E+03  1.190165579E+03  0.000000000E+00  0.00000E+00  9.000E+00
      25     1     1     2     0     0  3.906886812E+01 -7.478831844E+01 -6.539319361E+02  6.710973247E+02  1.249998926E+02  0.00000E+00  9.000E+00
       5     1     1     2   501     0 -5.575724543E+01  9.521994243E+01 -2.913104110E+02  3.115445810E+02  4.750000000E+00  0.00000E+00  9.000E+00
      -5     1     1     2     0   503  1.594732720E+00  2.833432354E+00 -1.360962300E+01  1.477686873E+01  4.750000000E+00  0.00000E+00  9.000E+00
      21     1     1     2   511   502  1.509364459E+01 -2.326505634E+01 -2.111234010E+02  2.129370128E+02  2.697398305E-06  0.00000E+00  9.000E+00
#rwgt            1           9  -4.6932936821946578E-003           4     1913348           0
</event>
<event>
      6   9999  3.45752E-01  1.49590E+01 -1.00000E+00  1.70475E-01
      21    -1     0     0   501   502  0.000000000E+00  0.000000000E+00  9.295349463E+00  9.295349463E+00  0.000000000E+00  0.00000E+00  9.000E+00
      21    -1     0     0   502   512  0.000000000E+00  0.000000000E+00 -8.431579954E+02  8.431579954E+02  0.000000000E+00  0.00000E+00  9.000E+00
      25     1     1     2     0     0  1.172210256E+01 -2.716732684E+00 -7.183281361E+02  7.292206305E+02  1.249905136E+02  0.00000E+00  9.000E+00
       5     1     1     2   501     0 -9.658461521E-02 -2.652168288E+00 -1.135058948E+00  5.558253686E+00  4.750000000E+00  0.00000E+00  9.000E+00
      -5     1     1     2     0   503 -6.824558992E+00 -8.798704103E+00 -4.024984455E+01  4.203099197E+01  4.750000000E+00  0.00000E+00  9.000E+00
      21     1     1     2   503   512 -4.800958950E+00  1.416760507E+01 -7.414960634E+01  7.564346873E+01  9.536743164E-07  0.00000E+00  9.000E+00
#rwgt            1           9   8.4041127738712746E-005           4     1914845           0
</event>
<event>
      6   9999  3.45752E-01  1.87232E+00 -1.00000E+00  3.44379E-01
      21    -1     0     0   501   502  0.000000000E+00  0.000000000E+00  2.714416301E+01  2.714416301E+01  0.000000000E+00  0.00000E+00  9.000E+00
      21    -1     0     0   502   511  0.000000000E+00  0.000000000E+00 -1.096209776E+03  1.096209776E+03  0.000000000E+00  0.00000E+00  9.000E+00
      25     1     1     2     0     0 -3.388645452E+01  4.457004461E+01 -6.033861486E+02  6.187348025E+02  1.249925233E+02  0.00000E+00  9.000E+00
       5     1     1     2   501     0 -6.343769351E-01  1.530167297E-01  1.748884340E+01  1.813416642E+01  4.750000000E+00  0.00000E+00  9.000E+00
      -5     1     1     2     0   503  3.339608507E+01 -4.322622310E+01 -4.685456133E+02  4.717428951E+02  4.750000000E+00  0.00000E+00  9.000E+00
      21     1     1     2   503   511  1.124746388E+00 -1.496838236E+00 -1.462269462E+01  1.474207506E+01  0.000000000E+00  0.00000E+00  9.000E+00
#rwgt            1           9   2.2981976396366783E-004           4     1916459           0
</event>
<event>
      6   9999  3.45752E-01  4.34992E+00 -1.00000E+00  2.40545E-01
      21    -1     0     0   501   512  0.000000000E+00  0.000000000E+00  1.377665140E+02  1.377665140E+02  0.000000000E+00  0.00000E+00  9.000E+00
      21    -1     0     0   502   503  0.000000000E+00  0.000000000E+00 -6.779247246E+02  6.779247246E+02  0.000000000E+00  0.00000E+00  9.000E+00
      25     1     1     2     0     0 -9.837731452E+00  9.526444761E+00 -4.895010148E+02  5.053944450E+02  1.249990694E+02  0.00000E+00  9.000E+00
       5     1     1     2   501     0  3.989174747E-02  1.334364668E-01 -1.344817518E+01  1.426307514E+01  4.750000000E+00  0.00000E+00  9.000E+00
      -5     1     1     2     0   503  7.844503279E+00 -5.773205462E+00 -1.664085369E+02  1.667609960E+02  4.750000000E+00  0.00000E+00  9.000E+00
      21     1     1     2   502   512  1.953336425E+00 -3.886675765E+00  1.291995164E+02  1.292727226E+02  2.697398305E-06  0.00000E+00  9.000E+00
#rwgt            1           9   2.5392235630718389E-003           4     1927019           0
</event>
<event>
      6   9999  3.45752E-01  6.50708E+00 -1.00000E+00  2.09265E-01
      21    -1     0     0   501   502  0.000000000E+00  0.000000000E+00  9.344602140E+00  9.344602140E+00  0.000000000E+00  0.00000E+00  9.000E+00
      21    -1     0     0   511   503  0.000000000E+00  0.000000000E+00 -1.819364487E+03  1.819364487E+03  0.000000000E+00  0.00000E+00  9.000E+00
      25     1     1     2     0     0  1.755842093E+01  2.413895731E+01 -5.202194913E+02  5.358596807E+02  1.250051635E+02  0.00000E+00  9.000E+00
       5     1     1     2   501     0 -5.854608684E+00 -2.651402000E+00 -3.863275334E+01  3.945070983E+01  4.750000000E+00  0.00000E+00  9.000E+00
      -5     1     1     2     0   503 -1.670805900E+01 -2.564683890E+01 -2.159123395E+02  2.181229479E+02  4.750000000E+00  0.00000E+00  9.000E+00
      21     1     1     2   511   502  5.004246760E+00  4.159283584E+00 -1.035255300E+03  1.035275750E+03  0.000000000E+00  0.00000E+00  9.000E+00
#rwgt            1           9   9.7247837189302444E-004           4     1931087           0
</event>
<event>
      6   9999  3.45752E-01  1.35549E+01 -1.00000E+00  1.74274E-01
      21    -1     0     0   501   502  0.000000000E+00  0.000000000E+00  1.364218024E+01  1.364218024E+01  0.000000000E+00  0.00000E+00  9.000E+00
      21    -1     0     0   502   512  0.000000000E+00  0.000000000E+00 -1.601707974E+03  1.601707974E+03  0.000000000E+00  0.00000E+00  9.000E+00
      25     1     1     2     0     0  4.539962172E+00 -1.395948109E+01 -8.295477218E+02  8.390418478E+02  1.250052850E+02  0.00000E+00  9.000E+00
       5     1     1     2   501     0 -2.411825216E+00 -2.106781128E+00  7.685064445E+00  9.585308712E+00  4.750000000E+00  0.00000E+00  9.000E+00
      -5     1     1     2     0   503 -5.334534338E-01  2.605443376E+00 -3.742929558E+01  3.782310902E+01  4.750000000E+00  0.00000E+00  9.000E+00
      21     1     1     2   503   512 -1.594683522E+00  1.346081884E+01 -7.287738409E+02  7.288998887E+02  1.868812365E-05  0.00000E+00  9.000E+00
#rwgt            1           9   3.8335700199221680E-004           4     1934483           0
</event>
<event>
      6   9999  3.45752E-01  2.91140E+01 -1.00000E+00  1.48685E-01
      21    -1     0     0   511   502  0.000000000E+00  0.000000000E+00  7.246876738E+01  7.246876738E+01  0.000000000E+00  0.00000E+00  9.000E+00
      21    -1     0     0   502   503  0.000000000E+00  0.000000000E+00 -1.272457630E+03  1.272457630E+03  0.000000000E+00  0.00000E+00  9.000E+00
      25     1     1     2     0     0  1.261704297E+02  1.843559102E+01 -4.034516079E+02  4.412007177E+02  1.250041000E+02  0.00000E+00  9.000E+00
       5     1     1     2   501     0 -2.701541237E+00  2.421795683E+00  1.652694410E+01  1.757457825E+01  4.750000000E+00  0.00000E+00  9.000E+00
      -5     1     1     2     0   503 -1.514528227E+02 -1.282464247E+01 -8.356059566E+02  8.493305046E+02  4.750000000E+00  0.00000E+00  9.000E+00
      21     1     1     2   511   501  2.798393430E+01 -8.032744236E+00  2.254175731E+01  3.682059724E+01  1.066240300E-06  0.00000E+00  9.000E+00
#rwgt            1           9   1.0413793820955879E-003           4     1937094           0
</event>
<event>
      6   9999 -3.45752E-01  5.49454E+00 -1.00000E+00  2.19524E-01
      21    -1     0     0   512   503  0.000000000E+00  0.000000000E+00  1.302136201E+01  1.302136201E+01  0.000000000E+00  0.00000E+00  9.000E+00
      21    -1     0     0   501   502  0.000000000E+00  0.000000000E+00 -8.589350248E+02  8.589350248E+02  0.000000000E+00  0.00000E+00  9.000E+00
      25     1     1     2     0     0 -3.970228740E+01 -3.029613476E+01 -4.386454958E+02  4.588350898E+02  1.250025653E+02  0.00000E+00  9.000E+00
       5     1     1     2   501     0  3.967900809E+01  3.185347294E+01 -3.655198716E+02  3.690750689E+02  4.750000000E+00  0.00000E+00  9.000E+00
      -5     1     1     2     0   503 -3.386232721E+00 -5.866068989E+00 -2.916518350E+01  3.031580060E+01  4.750000000E+00  0.00000E+00  9.000E+00
      21     1     1     2   512   502  3.409512033E+00  4.308730810E+00 -1.258311191E+01  1.373042748E+01  1.685873940E-07  0.00000E+00  9.000E+00
#rwgt            1           9  -6.2533354677269171E-002           4     1938753           0
</event>
<event>
      6   9999  3.45752E-01  1.65790E+01 -1.00000E+00  1.66689E-01
      21    -1     0     0   501   502  0.000000000E+00  0.000000000E+00  2.810542071E+01  2.810542071E+01  0.000000000E+00  0.00000E+00  9.000E+00
       2    -1     0     0   502     0  0.000000000E+00  0.000000000E+00 -3.941252429E+03  3.941252429E+03  0.000000000E+00  0.00000E+00  9.000E+00
      25     1     1     2     0     0  5.950451183E+01  1.641326502E+02 -1.065259671E+03  1.086684604E+03  1.249997941E+02  0.00000E+00  9.000E+00
       5     1     1     2   501     0 -4.830085078E+00  4.275666766E+00  1.348550915E+01  1.568542333E+01  4.750000000E+00  0.00000E+00  9.000E+00
      -5     1     1     2     0   503 -4.427071288E+01 -1.554999633E+02 -2.492663284E+03  2.497905712E+03  4.750000000E+00  0.00000E+00  9.000E+00
       2     1     1     2   503     0 -1.040371388E+01 -1.290835362E+01 -3.687095622E+02  3.690821103E+02  5.394796609E-06  0.00000E+00  9.000E+00
#rwgt            1           9   1.6282261931220204E-002           4     1942720           0
</event>
<event>
      6   9999  3.45752E-01  4.82349E+01 -1.00000E+00  1.35628E-01
      21    -1     0     0   501   511  0.000000000E+00  0.000000000E+00  3.622636461E+02  3.622636461E+02  0.000000000E+00  0.00000E+00  9.000E+00
      21    -1     0     0   502   503  0.000000000E+00  0.000000000E+00 -1.743680695E+03  1.743680695E+03  0.000000000E+00  0.00000E+00  9.000E+00
      25     1     1     2     0     0 -1.268378261E+01 -3.986732497E+01 -1.577555702E+03  1.583053564E+03  1.250052508E+02  0.00000E+00  9.000E+00
       5     1     1     2   501     0  2.774052076E+00 -1.401165739E+00  1.041709688E+02  1.043255092E+02  4.750000000E+00  0.00000E+00  9.000E+00
      -5     1     1     2     0   503  1.954826059E+01 -5.993624396E+00 -1.603299269E+02  1.616981942E+02  4.750000000E+00  0.00000E+00  9.000E+00
      21     1     1     2   502   511 -9.638530060E+00  4.726211511E+01  2.522976112E+02  2.568670734E+02  8.946258087E-06  0.00000E+00  9.000E+00
#rwgt            1           9   1.0803437769155284E-004           4     1945541           0
</event>
<event>
      6   9999 -3.45752E-01  1.42946E+01 -1.00000E+00  1.72204E-01
      21    -1     0     0   501   502  0.000000000E+00  0.000000000E+00  7.264122009E+02  7.264122009E+02  0.000000000E+00  0.00000E+00  9.000E+00
      21    -1     0     0   502   512  0.000000000E+00  0.000000000E+00 -2.046570736E+01  2.046570736E+01  0.000000000E+00  0.00000E+00  9.000E+00
      25     1     1     2     0     0 -7.738275163E+00  5.903620156E+00  5.122760912E+02  5.273962506E+02  1.250011113E+02  0.00000E+00  9.000E+00
       5     1     1     2   501     0 -1.142476185E+00  7.568216788E-01  1.808235012E+02  1.808910698E+02  4.750000000E+00  0.00000E+00  9.000E+00
      -5     1     1     2     0   503 -4.501685559E+00 -1.168502235E+01 -6.214746061E+00  1.476450097E+01  4.750000000E+00  0.00000E+00  9.000E+00
      21     1     1     2   503   512  1.338243691E+01  5.024580515E+00  1.906164716E+01  2.382608695E+01  5.331201500E-07  0.00000E+00  9.000E+00
#rwgt            1           9  -281.47396038784001                4     1947268           0
</event>
<event>
      6   9999  3.45752E-01  9.05451E+00 -1.00000E+00  1.91855E-01
      21    -1     0     0   501   502  0.000000000E+00  0.000000000E+00  1.607614923E+01  1.607614923E+01  0.000000000E+00  0.00000E+00  9.000E+00
       2    -1     0     0   502     0  0.000000000E+00  0.000000000E+00 -1.991851489E+03  1.991851489E+03  0.000000000E+00  0.00000E+00  9.000E+00
      25     1     1     2     0     0 -2.873497826E+01 -5.630349840E+00 -7.793620772E+02  7.898652239E+02  1.249976992E+02  0.00000E+00  9.000E+00
       5     1     1     2   501     0  1.817049657E+00 -3.449757445E-02  8.280920287E+00  9.717973057E+00  4.750000000E+00  0.00000E+00  9.000E+00
      -5     1     1     2     0   503  2.465356102E+01  1.443164306E+01 -1.142620720E+02  1.178747385E+02  4.750000000E+00  0.00000E+00  9.000E+00
       2     1     1     2   503     0  2.264367578E+00 -8.766795648E+00 -1.090432111E+03  1.090469703E+03  1.525878906E-05  0.00000E+00  9.000E+00
#rwgt            1           9   5.1693275120894011E-004           4     1950554           0
</event>
<event>
      6   9999  3.45752E-01  6.80899E+00 -1.00000E+00  2.06682E-01
      21    -1     0     0   501   502  0.000000000E+00  0.000000000E+00  1.282874148E+03  1.282874148E+03  0.000000000E+00  0.00000E+00  9.000E+00
      21    -1     0     0   502   511  0.000000000E+00  0.000000000E+00 -1.537317493E+02  1.537317493E+02  0.000000000E+00  0.00000E+00  9.000E+00
      25     1     1     2     0     0  5.260024337E+00 -3.523010129E+01  5.665331022E+01  1.417842532E+02  1.249973959E+02  0.00000E+00  9.000E+00
       5     1     1     2   501     0 -6.927921191E+00  1.032306996E+01  1.165645237E+03  1.165721212E+03  4.750000000E+00  0.00000E+00  9.000E+00
      -5     1     1     2     0   503 -4.786216329E+00  2.273751124E+01  9.986594220E+00  2.573318574E+01  4.750000000E+00  0.00000E+00  9.000E+00
      21     1     1     2   503   511  6.454113182E+00  2.169520098E+00 -1.031427426E+02  1.033672470E+02  4.046097457E-06  0.00000E+00  9.000E+00
#rwgt            1           9  0.36394750001096882                4     1954587           0
</event>
<event>
      6   9999  3.45752E-01  5.16690E+00 -1.00000E+00  2.23519E-01
      21    -1     0     0   501   512  0.000000000E+00  0.000000000E+00  2.758616620E+01  2.758616620E+01  0.000000000E+00  0.00000E+00  9.000E+00
      21    -1     0     0   502   503  0.000000000E+00  0.000000000E+00 -1.079962389E+03  1.079962389E+03  0.000000000E+00  0.00000E+00  9.000E+00
      25     1     1     2     0     0  4.222901385E+01 -8.393565593E+00 -7.332133421E+02  7.450369049E+02  1.249977722E+02  0.00000E+00  9.000E+00
       5     1     1     2   501     0 -5.187436646E+00  9.369501929E-02  1.911900893E+01  2.037197291E+01  4.750000000E+00  0.00000E+00  9.000E+00
      -5     1     1     2     0   503 -3.379772515E+01  1.232159704E+01 -3.321280483E+02  3.341043414E+02  4.750000000E+00  0.00000E+00  9.000E+00
      21     1     1     2   502   512 -3.243852062E+00 -4.021726465E+00 -6.153840925E+00  8.035335593E+00  2.064765462E-07  0.00000E+00  9.000E+00
#rwgt            1           9   3.7612354620239620E-003           4     1959975           0
</event>
<event>
      6   9999  3.45752E-01  3.90282E+00 -1.00000E+00  2.50082E-01
      21    -1     0     0   501   502  0.000000000E+00  0.000000000E+00  9.166366421E+02  9.166366421E+02  0.000000000E+00  0.00000E+00  9.000E+00
      21    -1     0     0   511   503  0.000000000E+00  0.000000000E+00 -9.374687463E+00  9.374687463E+00  0.000000000E+00  0.00000E+00  9.000E+00
      25     1     1     2     0     0  7.171657677E+00  4.268774366E+01  7.396856058E+02  7.514190553E+02  1.249885003E+02  0.00000E+00  9.000E+00
       5     1     1     2   501     0 -2.992342814E+00 -3.466350619E+01  1.173280504E+02  1.224701869E+02  4.750000000E+00  0.00000E+00  9.000E+00
      -5     1     1     2     0   503 -6.024246494E+00 -4.585019059E+00  4.269131421E+01  4.361679441E+01  4.750000000E+00  0.00000E+00  9.000E+00
      21     1     1     2   511   502  1.844931631E+00 -3.439218410E+00  7.556984207E+00  8.505292840E+00  1.685873940E-07  0.00000E+00  9.000E+00
#rwgt            1           9  0.23073172154057103                4     1965242           0
</event>
<event>
      6   9999 -3.45752E-01  2.01672E+01 -1.00000E+00  1.59935E-01
      21    -1     0     0   501   502  0.000000000E+00  0.000000000E+00  3.874572241E+01  3.874572241E+01  0.000000000E+00  0.00000E+00  9.000E+00
      21    -1     0     0   502   512  0.000000000E+00  0.000000000E+00 -2.527733017E+03  2.527733017E+03  0.000000000E+00  0.00000E+00  9.000E+00
      25     1     1     2     0     0 -2.443347612E+01  1.489391373E+02 -7.010690021E+02  7.279432070E+02  1.249948219E+02  0.00000E+00  9.000E+00
       5     1     1     2   501     0 -6.637436267E+01 -4.171311426E+01 -5.673806485E+01  9.688813355E+01  4.750000000E+00  0.00000E+00  9.000E+00
      -5     1     1     2     0   503  1.105761421E+02 -1.032349754E+02 -1.125416851E+03  1.135548411E+03  4.750000000E+00  0.00000E+00  9.000E+00
      21     1     1     2   503   512 -1.976830331E+01 -3.991047642E+00 -6.057633767E+02  6.060989877E+02  7.629394531E-06  0.00000E+00  9.000E+00
#rwgt            1           9 -0.23929605344302152                4     1969570           0
</event>
<event>
      6   9999  3.45752E-01  7.73446E+00 -1.00000E+00  1.99767E-01
      21    -1     0     0   501   502  0.000000000E+00  0.000000000E+00  3.142426227E+03  3.142426227E+03  0.000000000E+00  0.00000E+00  9.000E+00
      -1    -1     0     0     0   503  0.000000000E+00  0.000000000E+00 -2.574750374E+01  2.574750374E+01  0.000000000E+00  0.00000E+00  9.000E+00
      25     1     1     2     0     0 -5.384399003E+00 -2.403962001E+00  2.933101629E+03  2.935769817E+03  1.249979128E+02  0.00000E+00  9.000E+00
       5     1     1     2   501     0 -9.944368587E-02 -1.979190394E-01  1.509340860E+02  1.510089728E+02  4.750000000E+00  0.00000E+00  9.000E+00
      -5     1     1     2     0   503  4.418357525E+00 -5.058835647E+00  5.609780145E+01  5.669779121E+01  4.750000000E+00  0.00000E+00  9.000E+00
      -1     1     1     2     0   502  1.065485163E+00  7.660716688E+00 -2.345479391E+01  2.469714955E+01  4.032024032E-06  0.00000E+00  9.000E+00
#rwgt            1           9   5.9224181197476387E-004           4     1972082           0
</event>
<event>
      6   9999  3.45752E-01  1.31741E+01 -1.00000E+00  1.75406E-01
      21    -1     0     0   511   502  0.000000000E+00  0.000000000E+00  1.086871607E+02  1.086871607E+02  0.000000000E+00  0.00000E+00  9.000E+00
      21    -1     0     0   502   503  0.000000000E+00  0.000000000E+00 -4.506763166E+02  4.506763166E+02  0.000000000E+00  0.00000E+00  9.000E+00
      25     1     1     2     0     0 -9.793039460E-01  2.945556675E+01  7.316819998E+00  1.286398947E+02  1.250043887E+02  0.00000E+00  9.000E+00
       5     1     1     2   501     0 -2.148132674E+00 -1.092892353E+00  1.379567247E+01  1.478823744E+01  4.750000000E+00  0.00000E+00  9.000E+00
      -5     1     1     2     0   503 -1.957690446E+00 -4.051578520E+01 -3.867310969E+02  3.888815568E+02  4.750000000E+00  0.00000E+00  9.000E+00
      21     1     1     2   511   501  5.085127066E+00  1.215311080E+01  2.362944863E+01  2.705378831E+01  3.371747881E-07  0.00000E+00  9.000E+00
#rwgt            1           9   2.4747925105373004E-004           4     1974424           0
</event>
<event>
      6   9999  3.45752E-01  1.17584E+01 -1.00000E+00  1.80076E-01
      21    -1     0     0   501   512  0.000000000E+00  0.000000000E+00  2.218812481E+01  2.218812481E+01  0.000000000E+00  0.00000E+00  9.000E+00
      21    -1     0     0   502   503  0.000000000E+00  0.000000000E+00 -9.076639407E+02  9.076639407E+02  0.000000000E+00  0.00000E+00  9.000E+00
      25     1     1     2     0     0  4.183041287E+00  1.581874086E+01 -8.559256168E+02  8.651593780E+02  1.249974299E+02  0.00000E+00  9.000E+00
       5     1     1     2   501     0  1.950194219E+00 -1.567950542E+00  1.354786654E+01  1.457288283E+01  4.750000000E+00  0.00000E+00  9.000E+00
      -5     1     1     2     0   503  1.235797518E+00 -5.088018311E+00 -3.532261591E+01  3.602311509E+01  4.750000000E+00  0.00000E+00  9.000E+00
      21     1     1     2   502   512 -7.369033024E+00 -9.162772011E+00 -7.775449744E+00  1.409668959E+01  1.884864366E-07  0.00000E+00  9.000E+00
#rwgt            1           9   9.1768167255494831E-004           4     1977353           0
</event>
<event>
      6   9999  3.45752E-01  1.88537E+01 -1.00000E+00  1.62192E-01
      21    -1     0     0   501   502  0.000000000E+00  0.000000000E+00  3.735209026E+01  3.735209026E+01  0.000000000E+00  0.00000E+00  9.000E+00
      21    -1     0     0   502   511  0.000000000E+00  0.000000000E+00 -2.954560170E+02  2.954560170E+02  0.000000000E+00  0.00000E+00  9.000E+00
      25     1     1     2     0     0 -1.660777270E+01 -3.074585500E+00 -1.860155581E+02  2.247416807E+02  1.249870553E+02  0.00000E+00  9.000E+00
       5     1     1     2   501     0 -2.257085150E+00 -1.847102634E+00  1.467738402E+01  1.570013768E+01  4.750000000E+00  0.00000E+00  9.000E+00
      -5     1     1     2     0   503  4.839455330E-01  7.261125180E-01 -1.523739756E+00  5.064160889E+00  4.750000000E+00  0.00000E+00  9.000E+00
      21     1     1     2   503   511  1.838091231E+01  4.195575616E+00 -8.524201283E+01  8.730212794E+01  9.536743164E-07  0.00000E+00  9.000E+00
#rwgt            1           9   7.4553371576865468E-004           4     1979902           0
</event>
<event>
      6   9999  3.45752E-01  1.99844E+01 -1.00000E+00  1.60236E-01
      21    -1     0     0   501   512  0.000000000E+00  0.000000000E+00  2.694778476E+02  2.694778476E+02  0.000000000E+00  0.00000E+00  9.000E+00
      21    -1     0     0   502   503  0.000000000E+00  0.000000000E+00 -2.386007088E+01  2.386007088E+01  0.000000000E+00  0.00000E+00  9.000E+00
      25     1     1     2     0     0  3.483147717E+00 -1.602157000E+01  1.700750017E+02  2.117078804E+02  1.250035895E+02  0.00000E+00  9.000E+00
       5     1     1     2   501     0  1.131239092E-01 -7.592349746E-01  9.313767540E+00  1.048322472E+01  4.750000000E+00  0.00000E+00  9.000E+00
      -5     1     1     2     0   503  1.102637296E-01 -2.856835023E+00  9.483394712E+00  1.098503253E+01  4.750000000E+00  0.00000E+00  9.000E+00
      21     1     1     2   502   512 -3.706535355E+00  1.963763999E+01  5.674561274E+01  6.016178084E+01  6.743495762E-07  0.00000E+00  9.000E+00
#rwgt            1           9   3.2257904828499350E-003           4     1981340           0
</event>
<event>
      6   9999  3.45752E-01  8.17214E+00 -1.00000E+00  1.96927E-01
      21    -1     0     0   501   502  0.000000000E+00  0.000000000E+00  4.988866314E+01  4.988866314E+01  0.000000000E+00  0.00000E+00  9.000E+00
      21    -1     0     0   502   511  0.000000000E+00  0.000000000E+00 -1.006758485E+03  1.006758485E+03  0.000000000E+00  0.00000E+00  9.000E+00
      25     1     1     2     0     0 -1.792246614E+02  1.541217873E+01 -3.823526568E+02  4.406570580E+02  1.250042963E+02  0.00000E+00  9.000E+00
       5     1     1     2   501     0 -2.914819492E-01 -1.849655619E+00  5.946148994E+00  7.837434242E+00  4.750000000E+00  0.00000E+00  9.000E+00
      -5     1     1     2     0   503  1.719804887E+02 -1.672445866E+01 -5.614646396E+02  5.874709355E+02  4.750000000E+00  0.00000E+00  9.000E+00
      21     1     1     2   503   511  7.535654643E+00  3.161935552E+00 -1.899867426E+01  2.068172021E+01  2.384185791E-07  0.00000E+00  9.000E+00
#rwgt            1           9   7.7236542372516830E-005           4     1982336           0
</event>
<event>
      6   9999  3.45752E-01  1.80487E+01 -1.00000E+00  1.63690E-01
      21    -1     0     0   501   512  0.000000000E+00  0.000000000E+00  1.895139483E+02  1.895139483E+02  0.000000000E+00  0.00000E+00  9.000E+00
      21    -1     0     0   502   503  0.000000000E+00  0.000000000E+00 -1.440387874E+03  1.440387874E+03  0.000000000E+00  0.00000E+00  9.000E+00
      25     1     1     2     0     0 -4.737770602E+01 -2.813764189E+01 -1.197971220E+02  1.816931915E+02  1.249987659E+02  0.00000E+00  9.000E+00
       5     1     1     2   501     0  1.720969587E+00 -5.033287044E+00  3.058952636E+01  3.140982868E+01  4.750000000E+00  0.00000E+00  9.000E+00
      -5     1     1     2     0   503  2.855715276E+01  2.739501330E+01 -1.288284416E+03  1.288900809E+03  4.750000000E+00  0.00000E+00  9.000E+00
      21     1     1     2   502   512  1.709958367E+01  5.775915631E+00  1.266180856E+02  1.278979928E+02  5.394796609E-06  0.00000E+00  9.000E+00
#rwgt            1           9   16.590675114838117                4     1986535           0
</event>
<event>
      6   9999  3.45752E-01  8.12190E+00 -1.00000E+00  1.97241E-01
       3    -1     0     0   501     0  0.000000000E+00  0.000000000E+00  2.065651967E+02  2.065651967E+02  0.000000000E+00  0.00000E+00  9.000E+00
      21    -1     0     0   502   503  0.000000000E+00  0.000000000E+00 -7.425233632E+02  7.425233632E+02  0.000000000E+00  0.00000E+00  9.000E+00
      25     1     1     2     0     0 -6.611012024E+00  7.494870691E+00 -7.035436048E+02  7.146307119E+02  1.249942879E+02  0.00000E+00  9.000E+00
       5     1     1     2   501     0 -1.489542593E+00 -8.137729175E-01  1.253056840E+01  1.350772401E+01  4.750000000E+00  0.00000E+00  9.000E+00
      -5     1     1     2     0   503  3.118724223E+00 -2.665326383E-01 -3.261359595E+01  3.310599071E+01  4.750000000E+00  0.00000E+00  9.000E+00
       3     1     1     2   502     0  4.981830394E+00 -6.414565135E+00  1.876684659E+02  1.878441332E+02  5.394796609E-06  0.00000E+00  9.000E+00
#rwgt            1           9   2.6547542228614013E-004           4     1989495           0
</event>
<event>
      6   9999 -3.45752E-01  4.12958E+00 -1.00000E+00  2.45019E-01
      21    -1     0     0   501   502  0.000000000E+00  0.000000000E+00  7.606401267E+00  7.606401267E+00  0.000000000E+00  0.00000E+00  9.000E+00
      21    -1     0     0   511   503  0.000000000E+00  0.000000000E+00 -1.601926917E+03  1.601926917E+03  0.000000000E+00  0.00000E+00  9.000E+00
      25     1     1     2     0     0  1.456308627E+01 -6.727252099E+00 -1.396186969E+03  1.401863454E+03  1.250030127E+02  0.00000E+00  9.000E+00
       5     1     1     2   501     0  6.871360178E-01  1.386403012E+00  2.028943050E+00  5.391973583E+00  4.750000000E+00  0.00000E+00  9.000E+00
      -5     1     1     2     0   503 -1.211403683E+01  2.654258932E+00 -4.174148028E+01  4.380306673E+01  4.750000000E+00  0.00000E+00  9.000E+00
      21     1     1     2   511   502 -3.136185458E+00  2.686590156E+00 -1.584210095E+02  1.584748235E+02  0.000000000E+00  0.00000E+00  9.000E+00
#rwgt            1           9  -1.0064545963216033E-004           4     1993353           0
</event>
<event>
      6   9999  3.45752E-01  3.63356E+00 -1.00000E+00  2.56816E-01
      21    -1     0     0   501   502  0.000000000E+00  0.000000000E+00  1.669735111E+01  1.669735111E+01  0.000000000E+00  0.00000E+00  9.000E+00
      21    -1     0     0   502   512  0.000000000E+00  0.000000000E+00 -1.047029018E+03  1.047029018E+03  0.000000000E+00  0.00000E+00  9.000E+00
      25     1     1     2     0     0 -2.650661919E+00 -9.457333520E+00 -7.935596556E+02  8.034026625E+02  1.249897755E+02  0.00000E+00  9.000E+00
       5     1     1     2   501     0  3.518231100E+00  1.686243537E+00  1.066331585E+01  1.230813440E+01  4.750000000E+00  0.00000E+00  9.000E+00
      -5     1     1     2     0   503  4.636586397E-01  1.115200579E+01 -1.418422812E+02  1.423600276E+02  4.750000000E+00  0.00000E+00  9.000E+00
      21     1     1     2   503   512 -1.331227820E+00 -3.380915806E+00 -1.055930461E+02  1.056555448E+02  2.336015456E-06  0.00000E+00  9.000E+00
#rwgt            1           9   9.2808226277269027E-005           4     1999245           0
</event>
<event>
      6   9999  3.45752E-01  2.27609E+01 -1.00000E+00  1.56039E-01
      21    -1     0     0   502   503  0.000000000E+00  0.000000000E+00  1.310632621E+01  1.310632621E+01  0.000000000E+00  0.00000E+00  9.000E+00
      21    -1     0     0   511   502  0.000000000E+00  0.000000000E+00 -1.113435902E+03  1.113435902E+03  0.000000000E+00  0.00000E+00  9.000E+00
      25     1     1     2     0     0 -7.867188674E+00  5.289754294E+01 -7.589014247E+02  7.709841704E+02  1.250007033E+02  0.00000E+00  9.000E+00
       5     1     1     2   501     0 -1.502478847E+00 -1.090509228E+01 -2.655901438E+01  2.913970187E+01  4.750000000E+00  0.00000E+00  9.000E+00
      -5     1     1     2     0   503  2.821342585E+01 -5.475849736E+01 -2.003670019E+02  2.096759128E+02  4.750000000E+00  0.00000E+00  9.000E+00
      21     1     1     2   511   501 -1.884375833E+01  1.276604670E+01 -1.145021352E+02  1.167424436E+02  1.348699152E-06  0.00000E+00  9.000E+00
#rwgt            1           9   6.7027673050250054E-003           4     2004645           0
</event>
<event>
      6   9999  3.45752E-01  5.54034E+00 -1.00000E+00  2.18996E-01
      21    -1     0     0   501   502  0.000000000E+00  0.000000000E+00  2.464599620E+02  2.464599620E+02  0.000000000E+00  0.00000E+00  9.000E+00
      21    -1     0     0   512   503  0.000000000E+00  0.000000000E+00 -7.827531541E+01  7.827531541E+01  0.000000000E+00  0.00000E+00  9.000E+00
      25     1     1     2     0     0  2.638665364E+00 -2.310836570E+00  1.404966574E+02  1.880644632E+02  1.249665117E+02  0.00000E+00  9.000E+00
       5     1     1     2   501     0 -1.063812302E+00 -9.854961297E-01  7.420519896E+01  7.437121050E+01  4.750000000E+00  0.00000E+00  9.000E+00
      -5     1     1     2     0   503 -1.151242862E+00 -2.227792871E+00  6.816748920E+00  8.678651222E+00  4.750000000E+00  0.00000E+00  9.000E+00
      21     1     1     2   512   502 -4.236101997E-01  5.524125571E+00 -5.333395863E+01  5.362095255E+01  6.743495762E-07  0.00000E+00  9.000E+00
#rwgt            1           9   4.8627735277048307                4     2006049           0
</event>
<event>
      6   9999  3.45752E-01  1.68189E+02 -1.00000E+00  1.11562E-01
      21    -1     0     0   501   511  0.000000000E+00  0.000000000E+00  2.736459647E+02  2.736459647E+02  0.000000000E+00  0.00000E+00  9.000E+00
      21    -1     0     0   502   503  0.000000000E+00  0.000000000E+00 -1.079736131E+03  1.079736131E+03  0.000000000E+00  0.00000E+00  9.000E+00
      25     1     1     2     0     0 -4.474631870E+01 -2.200540029E+02 -7.923256578E+02  8.329661618E+02  1.250067259E+02  0.00000E+00  9.000E+00
       5     1     1     2   501     0  2.225910183E+02  2.102382205E+02 -3.201734353E+01  3.078872254E+02  4.750000000E+00  0.00000E+00  9.000E+00
      -5     1     1     2     0   503 -9.897021063E+00  8.020628332E-01 -3.453754197E+01  3.624911911E+01  4.750000000E+00  0.00000E+00  9.000E+00
      21     1     1     2   502   511 -1.679476785E+02  9.013719521E+00  5.279037661E+01  1.762795896E+02  2.236564522E-06  0.00000E+00  9.000E+00
#rwgt            1           9   7.5889883704405954E-004           4     2009055           0
</event>
<event>
      6   9999  3.45752E-01  7.08034E+00 -1.00000E+00  2.04509E-01
      21    -1     0     0   501   512  0.000000000E+00  0.000000000E+00  8.001145146E+01  8.001145146E+01  0.000000000E+00  0.00000E+00  9.000E+00
      21    -1     0     0   502   503  0.000000000E+00  0.000000000E+00 -1.599349980E+03  1.599349980E+03  0.000000000E+00  0.00000E+00  9.000E+00
      25     1     1     2     0     0  7.705155302E+00 -3.842101310E+00 -1.559749305E+03  1.564773918E+03  1.250015595E+02  0.00000E+00  9.000E+00
       5     1     1     2   501     0  1.899738118E+00 -4.543660621E+00  6.524976262E+01  6.560752913E+01  4.750000000E+00  0.00000E+00  9.000E+00
      -5     1     1     2     0   503 -5.139160581E+00  2.891359661E+00 -3.543562407E+01  3.623557486E+01  4.750000000E+00  0.00000E+00  9.000E+00
      21     1     1     2   502   512 -4.465732839E+00  5.494402270E+00  1.059663798E+01  1.274440907E+01  3.769728732E-07  0.00000E+00  9.000E+00
#rwgt            1           9   5.2622859285271144E-005           4     2009602           0
</event>
<event>
      6   9999 -3.45752E-01  2.20535E+01 -1.00000E+00  1.57037E-01
      21    -1     0     0   511   502  0.000000000E+00  0.000000000E+00  3.606583836E+01  3.606583836E+01  0.000000000E+00  0.00000E+00  9.000E+00
      21    -1     0     0   502   503  0.000000000E+00  0.000000000E+00 -1.778317904E+03  1.778317904E+03  0.000000000E+00  0.00000E+00  9.000E+00
      25     1     1     2     0     0  5.603004413E+00  5.969042395E+00 -1.032707996E+03  1.040276682E+03  1.249909923E+02  0.00000E+00  9.000E+00
       5     1     1     2   501     0 -2.307732761E+00 -1.224953116E+01  1.820277811E+01  2.256723897E+01  4.750000000E+00  0.00000E+00  9.000E+00
      -5     1     1     2     0   503  9.456062591E+00 -1.171280082E+01 -7.292634603E+02  7.294342765E+02  4.750000000E+00  0.00000E+00  9.000E+00
      21     1     1     2   511   501 -1.275133424E+01  1.799328958E+01  1.516612072E+00  2.210554472E+01  1.176153854E-06  0.00000E+00  9.000E+00
#rwgt            1           9  -3.9054720549538448E-004           4     2014651           0
</event>
<event>
      6   9999 -3.45752E-01  2.04989E+01 -1.00000E+00  1.59398E-01
      21    -1     0     0   512   503  0.000000000E+00  0.000000000E+00  2.502505771E+02  2.502505771E+02  0.000000000E+00  0.00000E+00  9.000E+00
      21    -1     0     0   501   502  0.000000000E+00  0.000000000E+00 -7.543707051E+02  7.543707051E+02  0.000000000E+00  0.00000E+00  9.000E+00
      25     1     1     2     0     0  5.206821819E+01 -2.120528902E+01 -4.727336685E+02  4.922025660E+02  1.250019241E+02  0.00000E+00  9.000E+00
       5     1     1     2   501     0 -4.328071050E+01 -4.032699712E-01 -2.198186839E+02  2.240897116E+02  4.750000000E+00  0.00000E+00  9.000E+00
      -5     1     1     2     0   503 -2.097499852E+00  2.232016977E+00 -4.934609429E+01  4.966871175E+01  4.750000000E+00  0.00000E+00  9.000E+00
      21     1     1     2   512   502 -6.690007837E+00  1.937654201E+01  2.377783186E+02  2.386602929E+02  0.000000000E+00  0.00000E+00  9.000E+00
#rwgt            1           9  -1.7753015885259085E-003           4     2017035           0
</event>
<event>
      6   9999  3.45752E-01  1.00303E+01 -1.00000E+00  1.87056E-01
      21    -1     0     0   501   502  0.000000000E+00  0.000000000E+00  2.612091213E+01  2.612091213E+01  0.000000000E+00  0.00000E+00  9.000E+00
       2    -1     0     0   502     0  0.000000000E+00  0.000000000E+00 -4.180612732E+03  4.180612732E+03  0.000000000E+00  0.00000E+00  9.000E+00
      25     1     1     2     0     0 -5.312618913E+01  5.661067819E+01 -8.312509332E+02  8.441732753E+02  1.249929751E+02  0.00000E+00  9.000E+00
       5     1     1     2   501     0  8.261033832E-02 -5.394551284E-02  9.317841310E+00  1.045917785E+01  4.750000000E+00  0.00000E+00  9.000E+00
      -5     1     1     2     0   503  4.426096892E+01 -6.140153571E+01 -1.375154657E+02  1.570421846E+02  4.750000000E+00  0.00000E+00  9.000E+00
       2     1     1     2   503     0  8.782609871E+00  4.844803025E+00 -3.195043262E+03  3.195059006E+03  4.315837288E-05  0.00000E+00  9.000E+00
#rwgt            1           9   2.0252826510025615E-003           4     2019702           0
</event>
<event>
      6   9999  3.45752E-01  4.14982E+00 -1.00000E+00  2.44590E-01
      21    -1     0     0   501   502  0.000000000E+00  0.000000000E+00  2.043694050E+01  2.043694050E+01  0.000000000E+00  0.00000E+00  9.000E+00
      21    -1     0     0   511   503  0.000000000E+00  0.000000000E+00 -3.645290131E+02  3.645290131E+02  0.000000000E+00  0.00000E+00  9.000E+00
      25     1     1     2     0     0 -3.068549511E+00  1.238793735E+00 -2.841471011E+02  3.104372143E+02  1.249829521E+02  0.00000E+00  9.000E+00
       5     1     1     2   501     0  9.001354974E-01 -1.090227360E+00  4.624739307E+00  6.778609981E+00  4.750000000E+00  0.00000E+00  9.000E+00
      -5     1     1     2     0   503  1.458057121E+00 -4.237137759E+00 -5.508038834E+00  8.542848398E+00  4.750000000E+00  0.00000E+00  9.000E+00
      21     1     1     2   511   502  7.103568932E-01  4.088571384E+00 -5.906167194E+01  5.920728093E+01  0.000000000E+00  0.00000E+00  9.000E+00
#rwgt            1           9   4.9070398205862527E-005           4     2022758           0
</event>
<event>
      6   9999 -3.45752E-01  9.73906E+00 -1.00000E+00  1.88411E-01
      21    -1     0     0   501   512  0.000000000E+00  0.000000000E+00  1.410441336E+01  1.410441336E+01  0.000000000E+00  0.00000E+00  9.000E+00
      21    -1     0     0   502   503  0.000000000E+00  0.000000000E+00 -7.981904135E+02  7.981904135E+02  0.000000000E+00  0.00000E+00  9.000E+00
      25     1     1     2     0     0 -2.053196965E+01  2.410064810E+00 -7.086898114E+02  7.199252285E+02  1.249948627E+02  0.00000E+00  9.000E+00
       5     1     1     2   501     0 -1.702135055E-01  1.508776980E+00 -7.104318840E-01  5.037121606E+00  4.750000000E+00  0.00000E+00  9.000E+00
      -5     1     1     2     0   503  2.569168259E+01  4.445022717E+00 -7.271751902E+01  7.739651707E+01  4.750000000E+00  0.00000E+00  9.000E+00
      21     1     1     2   502   512 -4.989499440E+00 -8.363864506E+00 -1.968237832E+00  9.935959657E+00  2.987673529E-07  0.00000E+00  9.000E+00
#rwgt            1           9  -4.5517660826067720E-005           4     2027497           0
</event>
<event>
      6   9999  3.45752E-01  1.35132E+01 -1.00000E+00  1.74396E-01
      21    -1     0     0   501   502  0.000000000E+00  0.000000000E+00  1.539552480E+01  1.539552480E+01  0.000000000E+00  0.00000E+00  9.000E+00
      21    -1     0     0   511   503  0.000000000E+00  0.000000000E+00 -1.311364497E+03  1.311364497E+03  0.000000000E+00  0.00000E+00  9.000E+00
      25     1     1     2     0     0 -7.528535079E+00 -2.550224618E+01 -4.158246627E+02  4.350225526E+02  1.250097106E+02  0.00000E+00  9.000E+00
       5     1     1     2   501     0  1.312011859E-01  1.116104032E+00  3.990174460E+00  6.304513794E+00  4.750000000E+00  0.00000E+00  9.000E+00
      -5     1     1     2     0   503 -4.031052156E+00  3.159721241E+01 -4.839669989E+02  4.850373715E+02  4.750000000E+00  0.00000E+00  9.000E+00
      21     1     1     2   511   502  1.142838605E+01 -7.211070261E+00 -4.001674850E+02  4.003955838E+02  0.000000000E+00  0.00000E+00  9.000E+00
#rwgt            1           9   2.0703696259624380E-003           4     2029755           0
</event>
<event>
      6   9999  3.45752E-01  9.75595E+00 -1.00000E+00  1.88331E-01
      21    -1     0     0   512   503  0.000000000E+00  0.000000000E+00  8.136933051E+00  8.136933051E+00  0.000000000E+00  0.00000E+00  9.000E+00
      21    -1     0     0   501   502  0.000000000E+00  0.000000000E+00 -7.207350776E+02  7.207350776E+02  0.000000000E+00  0.00000E+00  9.000E+00
      25     1     1     2     0     0  9.475696941E+00 -9.853281292E-01 -6.256288116E+02  6.380645261E+02  1.249966792E+02  0.00000E+00  9.000E+00
       5     1     1     2   501     0 -1.726324069E+00 -2.841469725E-01 -4.410124278E+01  4.439079915E+01  4.750000000E+00  0.00000E+00  9.000E+00
      -5     1     1     2     0   503  1.909371641E+00  2.643207525E+00 -2.832086427E+01  2.890097055E+01  4.750000000E+00  0.00000E+00  9.000E+00
      21     1     1     2   512   502 -9.658744513E+00 -1.373732423E+00 -1.454722584E+01  1.751571483E+01  1.685873940E-07  0.00000E+00  9.000E+00
#rwgt            1           9  0.85962873004108920                4     2032047           0
</event>
<event>
      6   9999  3.45752E-01  1.05530E+01 -1.00000E+00  1.84765E-01
      21    -1     0     0   502   503  0.000000000E+00  0.000000000E+00  3.725953603E+00  3.725953603E+00  0.000000000E+00  0.00000E+00  9.000E+00
      21    -1     0     0   501   511  0.000000000E+00  0.000000000E+00 -2.695199999E+03  2.695199999E+03  0.000000000E+00  0.00000E+00  9.000E+00
      25     1     1     2     0     0  3.792142422E-01 -1.028177173E+01 -1.854890552E+03  1.859125557E+03  1.249920793E+02  0.00000E+00  9.000E+00
       5     1     1     2   501     0 -8.152454666E-01 -5.650517315E-01 -3.271361727E+00  5.852197551E+00  4.750000000E+00  0.00000E+00  9.000E+00
      -5     1     1     2     0   503  1.320037366E+00  3.309224243E-01 -2.122678732E+01  2.179428843E+01  4.750000000E+00  0.00000E+00  9.000E+00
      21     1     1     2   502   511 -8.840061417E-01  1.051590104E+01 -8.120853446E+02  8.121539094E+02  0.000000000E+00  0.00000E+00  9.000E+00
#rwgt            1           9  0.22589420446210037                4     2033843           0
</event>
<event>
      6   9999  3.45752E-01  1.08396E+01 -1.00000E+00  1.83579E-01
      21    -1     0     0   512   502  0.000000000E+00  0.000000000E+00  2.238774527E+02  2.238774527E+02  0.000000000E+00  0.00000E+00  9.000E+00
      21    -1     0     0   502   503  0.000000000E+00  0.000000000E+00 -9.016611142E+02  9.016611142E+02  0.000000000E+00  0.00000E+00  9.000E+00
      25     1     1     2     0     0  8.111306951E+00  1.091082941E+01 -8.122477149E+02  8.219225122E+02  1.250017044E+02  0.00000E+00  9.000E+00
       5     1     1     2   501     0 -3.077155701E+00  3.375509451E+00  9.148534690E+00  1.127480103E+01  4.750000000E+00  0.00000E+00  9.000E+00
      -5     1     1     2     0   503 -6.707920582E-01 -4.363692913E+00 -8.324601523E+01  8.349822351E+01  4.750000000E+00  0.00000E+00  9.000E+00
      21     1     1     2   512   501 -4.363359192E+00 -9.922645948E+00  2.085615340E+02  2.088430302E+02  4.672030912E-06  0.00000E+00  9.000E+00
#rwgt            1           9   4.8138450944487108E-003           4     2036472           0
</event>
<event>
      6   9999 -3.45752E-01  2.07509E+01 -1.00000E+00  1.58998E-01
      21    -1     0     0   511   502  0.000000000E+00  0.000000000E+00  2.267882433E+01  2.267882433E+01  0.000000000E+00  0.00000E+00  9.000E+00
      21    -1     0     0   502   503  0.000000000E+00  0.000000000E+00 -1.027346053E+03  1.027346053E+03  0.000000000E+00  0.00000E+00  9.000E+00
      25     1     1     2     0     0 -1.131897872E+01  1.204157147E+01 -9.617991151E+02  9.700285537E+02  1.249989546E+02  0.00000E+00  9.000E+00
       5     1     1     2   501     0  2.674078727E+00  3.985482489E+00  1.182631167E+01  1.361833012E+01  4.750000000E+00  0.00000E+00  9.000E+00
      -5     1     1     2     0   503  4.303453703E+00  4.264639090E+00  1.907811031E-01  7.701023164E+00  4.750000000E+00  0.00000E+00  9.000E+00
      21     1     1     2   511   501  4.341446286E+00 -2.029169305E+01 -5.488520639E+01  5.867697030E+01  1.348699152E-06  0.00000E+00  9.000E+00
#rwgt            1           9  -8.6442798940113294E-002           4     2039083           0
</event>
<event>
      6   9999  3.45752E-01  5.52521E+00 -1.00000E+00  2.19170E-01
      21    -1     0     0   512   502  0.000000000E+00  0.000000000E+00  2.162999110E+02  2.162999110E+02  0.000000000E+00  0.00000E+00  9.000E+00
      21    -1     0     0   502   503  0.000000000E+00  0.000000000E+00 -6.917741262E+02  6.917741262E+02  0.000000000E+00  0.00000E+00  9.000E+00
      25     1     1     2     0     0  1.887415063E+00 -7.261744180E-02 -6.291759928E+02  6.414782323E+02  1.250132992E+02  0.00000E+00  9.000E+00
       5     1     1     2   501     0  1.083342211E+00  1.239087999E-01 -2.604240118E+00  5.525717178E+00  4.750000000E+00  0.00000E+00  9.000E+00
      -5     1     1     2     0   503  1.443755204E+00  3.271355899E+00 -5.217660997E+01  5.251425832E+01  4.750000000E+00  0.00000E+00  9.000E+00
      21     1     1     2   512   501 -4.414512478E+00 -3.322647257E+00  2.084826277E+02  2.085558294E+02  2.697398305E-06  0.00000E+00  9.000E+00
#rwgt            1           9   1.6985945924456573E-004           4     2040599           0
</event>
<event>
      6   9999  3.45752E-01  1.79070E+01 -1.00000E+00  1.63963E-01
      21    -1     0     0   501   511  0.000000000E+00  0.000000000E+00  8.408214462E+02  8.408214462E+02  0.000000000E+00  0.00000E+00  9.000E+00
      21    -1     0     0   502   503  0.000000000E+00  0.000000000E+00 -1.564334880E+01  1.564334880E+01  0.000000000E+00  0.00000E+00  9.000E+00
      25     1     1     2     0     0 -5.100175181E+00 -1.561052342E+01  2.543805757E+02  2.839081868E+02  1.249987240E+02  0.00000E+00  9.000E+00
       5     1     1     2   501     0  1.779480756E-01 -2.197776688E+00  3.741604450E+02  3.741970911E+02  4.750000000E+00  0.00000E+00  9.000E+00
      -5     1     1     2     0   503  1.713962202E-01  5.430140592E-01  1.301577387E+01  1.386712336E+01  4.750000000E+00  0.00000E+00  9.000E+00
      21     1     1     2   502   511  4.750830885E+00  1.726528605E+01  1.836213028E+02  1.844923937E+02  3.814697266E-06  0.00000E+00  9.000E+00
#rwgt            1           9   1.0433695483407621E-003           4     2044040           0
</event>
<event>
      6   9999  3.45752E-01  3.15894E+00 -1.00000E+00  2.71177E-01
      21    -1     0     0   501   512  0.000000000E+00  0.000000000E+00  4.246551871E+01  4.246551871E+01  0.000000000E+00  0.00000E+00  9.000E+00
      21    -1     0     0   502   503  0.000000000E+00  0.000000000E+00 -1.171306874E+03  1.171306874E+03  0.000000000E+00  0.00000E+00  9.000E+00
      25     1     1     2     0     0 -9.567527546E-01  1.319596428E+01 -1.022886995E+03  1.030581764E+03  1.250036738E+02  0.00000E+00  9.000E+00
       5     1     1     2   501     0  8.772022759E+00  4.219690024E+00  2.599878247E+01  2.816475381E+01  4.750000000E+00  0.00000E+00  9.000E+00
      -5     1     1     2     0   503 -6.250074846E+00 -1.467174429E+01 -1.427806325E+02  1.437469827E+02  4.750000000E+00  0.00000E+00  9.000E+00
      21     1     1     2   502   512 -1.565195159E+00 -2.743910016E+00  1.082748979E+01  1.127889237E+01  3.576278687E-07  0.00000E+00  9.000E+00
#rwgt            1           9   3.0833980091771207E-004           4     2045836           0
</event>
<event>
      6   9999  3.45752E-01  1.08574E+01 -1.00000E+00  1.83508E-01
      21    -1     0     0   511   502  0.000000000E+00  0.000000000E+00  5.049452651E+02  5.049452651E+02  0.000000000E+00  0.00000E+00  9.000E+00
      21    -1     0     0   502   503  0.000000000E+00  0.000000000E+00 -8.410606861E+02  8.410606861E+02  0.000000000E+00  0.00000E+00  9.000E+00
      25     1     1     2     0     0 -2.573042689E+00 -4.168032301E+00 -8.164975861E+02  8.260234681E+02  1.249898748E+02  0.00000E+00  9.000E+00
       5     1     1     2   501     0 -3.378493141E+00  4.085117263E-01  9.675681478E+00  1.130320352E+01  4.750000000E+00  0.00000E+00  9.000E+00
      -5     1     1     2     0   503  2.123222046E+00 -6.400522132E+00 -1.802738318E+01  1.982482786E+01  4.750000000E+00  0.00000E+00  9.000E+00
      21     1     1     2   511   501  3.828313784E+00  1.016004271E+01  4.887338667E+02  4.888544517E+02  5.394796609E-06  0.00000E+00  9.000E+00
#rwgt            1           9  0.17284904731898368                4     2053511           0
</event>
<event>
      6   9999  3.45752E-01  5.54647E+00 -1.00000E+00  2.18926E-01
      21    -1     0     0   501   502  0.000000000E+00  0.000000000E+00  1.182457268E+03  1.182457268E+03  0.000000000E+00  0.00000E+00  9.000E+00
      21    -1     0     0   512   503  0.000000000E+00  0.000000000E+00 -1.093076831E+01  1.093076831E+01  0.000000000E+00  0.00000E+00  9.000E+00
      25     1     1     2     0     0 -1.747160489E+01  6.084147269E+00  3.821862158E+02  4.025333331E+02  1.249980275E+02  0.00000E+00  9.000E+00
       5     1     1     2   501     0  1.851903720E+00 -1.264415073E+00  6.245538498E+02  6.245759378E+02  4.750000000E+00  0.00000E+00  9.000E+00
      -5     1     1     2     0   503  1.125964707E+01 -8.248027882E+00  1.444191609E+02  1.451697839E+02  4.750000000E+00  0.00000E+00  9.000E+00
      21     1     1     2   512   502  4.360054099E+00  3.428295686E+00  2.036727282E+01  2.110898115E+01  2.384185791E-07  0.00000E+00  9.000E+00
#rwgt            1           9   1.8395081445627328E-004           4     2055959           0
</event>
<event>
      6   9999  3.45752E-01  2.40882E+01 -1.00000E+00  1.54280E-01
      21    -1     0     0   501   502  0.000000000E+00  0.000000000E+00  7.812408237E+00  7.812408237E+00  0.000000000E+00  0.00000E+00  9.000E+00
      21    -1     0     0   511   503  0.000000000E+00  0.000000000E+00 -1.055305667E+03  1.055305667E+03  0.000000000E+00  0.00000E+00  9.000E+00
      25     1     1     2     0     0 -6.881850382E+00  2.283651847E+01 -5.928013260E+02  6.063060955E+02  1.249992117E+02  0.00000E+00  9.000E+00
       5     1     1     2   501     0 -5.746000451E-01  1.029592194E+00 -9.717015725E+00  1.087994117E+01  4.750000000E+00  0.00000E+00  9.000E+00
      -5     1     1     2     0   503 -1.052016810E+00 -1.330597069E+00 -6.610668259E+01  6.629881757E+01  4.750000000E+00  0.00000E+00  9.000E+00
      21     1     1     2   511   502  8.508467237E+00 -2.253551360E+01 -3.788682346E+02  3.796332211E+02  7.629394531E-06  0.00000E+00  9.000E+00
#rwgt            1           9   1.9007857902858826E-003           4     2060610           0
</event>
<event>
      6   9999  3.45752E-01  1.48783E+01 -1.00000E+00  1.70679E-01
      21    -1     0     0   501   512  0.000000000E+00  0.000000000E+00  1.503973658E+01  1.503973658E+01  0.000000000E+00  0.00000E+00  9.000E+00
      21    -1     0     0   502   503  0.000000000E+00  0.000000000E+00 -8.457734540E+02  8.457734540E+02  0.000000000E+00  0.00000E+00  9.000E+00
      25     1     1     2     0     0  7.068515073E-01  9.412196125E+00 -7.905520009E+02  8.004286474E+02  1.249978581E+02  0.00000E+00  9.000E+00
       5     1     1     2   501     0 -3.851261622E+00  4.680487044E+00  3.663842721E+00  8.527919942E+00  4.750000000E+00  0.00000E+00  9.000E+00
      -5     1     1     2     0   503 -1.679054689E+00 -1.792010346E-02 -3.315549046E+01  3.353607898E+01  4.750000000E+00  0.00000E+00  9.000E+00
      21     1     1     2   502   512  4.823464804E+00 -1.407476307E+01 -1.069006880E+01  1.832054418E+01  4.616955931E-07  0.00000E+00  9.000E+00
#rwgt            1           9   1.9754333510169675E-004           4     2061445           0
</event>
<event>
      6   9999  3.45752E-01  3.81463E+01 -1.00000E+00  1.41392E-01
      21    -1     0     0   501   511  0.000000000E+00  0.000000000E+00  1.451785989E+02  1.451785989E+02  0.000000000E+00  0.00000E+00  9.000E+00
      21    -1     0     0   502   503  0.000000000E+00  0.000000000E+00 -1.627279796E+03  1.627279796E+03  0.000000000E+00  0.00000E+00  9.000E+00
      25     1     1     2     0     0 -1.719547134E+02 -3.984321631E+01 -5.898475700E+02  6.282525646E+02  1.250008948E+02  0.00000E+00  9.000E+00
       5     1     1     2   501     0  4.621906691E+00  6.758523660E+01  4.312986874E+01  8.044796023E+01  4.750000000E+00  0.00000E+00  9.000E+00
      -5     1     1     2     0   503  1.941025765E+02 -5.491774965E+01 -9.825736735E+02  1.003077941E+03  4.750000000E+00  0.00000E+00  9.000E+00
      21     1     1     2   502   511 -2.676976987E+01  2.717572936E+01  4.719017808E+01  6.067992874E+01  2.431401974E-06  0.00000E+00  9.000E+00
#rwgt            1           9   1.3233620592136244E-002           4     2063152           0
</event>
<event>
      6   9999 -3.45752E-01  2.08946E+01 -1.00000E+00  1.58773E-01
      21    -1     0     0   512   503  0.000000000E+00  0.000000000E+00  1.263499226E+02  1.263499226E+02  0.000000000E+00  0.00000E+00  9.000E+00
      21    -1     0     0   501   502  0.000000000E+00  0.000000000E+00 -8.288242078E+02  8.288242078E+02  0.000000000E+00  0.00000E+00  9.000E+00
      25     1     1     2     0     0 -5.136220901E+00  2.975734226E+01 -7.792699170E+02  7.898092452E+02  1.250006401E+02  0.00000E+00  9.000E+00
       5     1     1     2   501     0  3.494645288E+00  1.187808303E-01 -1.311447912E+01  1.437980240E+01  4.750000000E+00  0.00000E+00  9.000E+00
      -5     1     1     2     0   503 -1.646071243E+01 -1.944093884E+01 -2.391275172E+01  3.526028008E+01  4.750000000E+00  0.00000E+00  9.000E+00
      21     1     1     2   512   502  1.810228804E+01 -1.043518425E+01  1.138228627E+02  1.157248027E+02  3.568322551E-06  0.00000E+00  9.000E+00
#rwgt            1           9  -4.1616584576245730E-002           4     2065176           0
</event>
<event>
      6   9999  3.45752E-01  1.15003E+01 -1.00000E+00  1.81018E-01
      21    -1     0     0   501   511  0.000000000E+00  0.000000000E+00  6.572684471E+01  6.572684471E+01  0.000000000E+00  0.00000E+00  9.000E+00
      21    -1     0     0   502   503  0.000000000E+00  0.000000000E+00 -8.063096874E+02  8.063096874E+02  0.000000000E+00  0.00000E+00  9.000E+00
      25     1     1     2     0     0  6.429394553E+00  7.726728691E+00 -7.579820419E+02  7.682868437E+02  1.250074351E+02  0.00000E+00  9.000E+00
       5     1     1     2   501     0  2.985312607E+00  9.596373191E-02  3.734318249E+00  6.740098900E+00  4.750000000E+00  0.00000E+00  9.000E+00
      -5     1     1     2     0   503  1.329633735E+00 -3.721826803E+00 -4.083991566E+01  4.130473498E+01  4.750000000E+00  0.00000E+00  9.000E+00
      21     1     1     2   502   511 -1.074434089E+01 -4.100865620E+00  5.450479666E+01  5.570485454E+01  1.348699152E-06  0.00000E+00  9.000E+00
#rwgt            1           9   1.2686265918007561E-003           4     2066708           0
</event>
<event>
      6   9999 -3.45752E-01  2.84834E+01 -1.00000E+00  1.49310E-01
      21    -1     0     0   501   512  0.000000000E+00  0.000000000E+00  1.042690702E+02  1.042690702E+02  0.000000000E+00  0.00000E+00  9.000E+00
      21    -1     0     0   502   503  0.000000000E+00  0.000000000E+00 -2.056738560E+02  2.056738560E+02  0.000000000E+00  0.00000E+00  9.000E+00
      25     1     1     2     0     0  3.923871101E+01  3.935040961E+01 -1.613328546E+02  2.115222205E+02  1.250009144E+02  0.00000E+00  9.000E+00
       5     1     1     2   501     0  2.422617795E+00  1.667211436E+00  1.554360409E+01  1.651710625E+01  4.750000000E+00  0.00000E+00  9.000E+00
      -5     1     1     2     0   503 -1.353003020E+01 -3.655273168E+01  3.277109873E+01  5.114363423E+01  4.750000000E+00  0.00000E+00  9.000E+00
      21     1     1     2   502   512 -2.813129860E+01 -4.464889371E+00  1.161336592E+01  3.075996532E+01  4.768371582E-07  0.00000E+00  9.000E+00
#rwgt            1           9  -5.1499499999164628E-006           4     2069144           0
</event>
<event>
      6   9999 -3.45752E-01  4.23660E+00 -1.00000E+00  2.42795E-01
      21    -1     0     0   501   511  0.000000000E+00  0.000000000E+00  5.463140221E+02  5.463140221E+02  0.000000000E+00  0.00000E+00  9.000E+00
      21    -1     0     0   502   503  0.000000000E+00  0.000000000E+00 -3.534778243E+01  3.534778243E+01  0.000000000E+00  0.00000E+00  9.000E+00
      25     1     1     2     0     0  5.425890290E+00 -3.376637918E+00  7.716717742E+01  1.470387801E+02  1.249991505E+02  0.00000E+00  9.000E+00
       5     1     1     2   501     0 -2.855834015E+00  3.695980161E+00  3.755360742E+02  3.755951565E+02  4.750000000E+00  0.00000E+00  9.000E+00
      -5     1     1     2     0   503  1.050480844E+00  1.880770006E+00  3.401630403E+01  3.441383800E+01  4.750000000E+00  0.00000E+00  9.000E+00
      21     1     1     2   502   511 -3.620537119E+00 -2.200112249E+00  2.424668398E+01  2.461402988E+01  3.371747881E-07  0.00000E+00  9.000E+00
#rwgt            1           9  -4.1771268094224358E-002           4     2071421           0
</event>
<event>
      6   9999  3.45752E-01  7.95024E+01 -1.00000E+00  1.24826E-01
      21    -1     0     0   502   512  0.000000000E+00  0.000000000E+00  1.143271125E+03  1.143271125E+03  0.000000000E+00  0.00000E+00  9.000E+00
      21    -1     0     0   501   502  0.000000000E+00  0.000000000E+00 -9.721810253E+02  9.721810253E+02  0.000000000E+00  0.00000E+00  9.000E+00
      25     1     1     2     0     0  4.422059566E+01 -9.499483360E+00 -4.991088391E+02  5.165046256E+02  1.249867743E+02  0.00000E+00  9.000E+00
       5     1     1     2   501     0 -7.461269910E+00  3.861913930E+00 -2.440702638E+02  2.442610102E+02  4.750000000E+00  0.00000E+00  9.000E+00
      -5     1     1     2     0   503 -1.094810718E+02 -2.649005300E+01 -2.042747518E+02  2.333207336E+02  4.750000000E+00  0.00000E+00  9.000E+00
      21     1     1     2   503   512  7.272174605E+01  3.212762243E+01  1.118543955E+03  1.121365781E+03  1.525878906E-05  0.00000E+00  9.000E+00
#rwgt            1           9  0.97848881834899570                4     2077169           0
</event>
<event>
      6   9999  3.45752E-01  1.98063E+01 -1.00000E+00  1.60534E-01
      21    -1     0     0   501   511  0.000000000E+00  0.000000000E+00  3.592352242E+01  3.592352242E+01  0.000000000E+00  0.00000E+00  9.000E+00
      21    -1     0     0   502   503  0.000000000E+00  0.000000000E+00 -1.176889784E+03  1.176889784E+03  0.000000000E+00  0.00000E+00  9.000E+00
      25     1     1     2     0     0 -7.176905140E+01  4.520960180E+01 -2.510979728E+02  2.930349793E+02  1.249984092E+02  0.00000E+00  9.000E+00
       5     1     1     2   501     0  2.776483185E-01  1.844408940E-01  7.465860897E+00  8.855093787E+00  4.750000000E+00  0.00000E+00  9.000E+00
      -5     1     1     2     0   503  6.548252538E+01 -2.652118864E+01 -8.844833482E+02  8.873131862E+02  4.750000000E+00  0.00000E+00  9.000E+00
      21     1     1     2   502   511  6.008877702E+00 -1.887285405E+01 -1.285080153E+01  2.361004725E+01  5.331201500E-07  0.00000E+00  9.000E+00
#rwgt            1           9   2.3400920741783730E-004           4     2077627           0
</event>
<event>
      6   9999  3.45752E-01  2.42574E+01 -1.00000E+00  1.54066E-01
      -3    -1     0     0     0   502  0.000000000E+00  0.000000000E+00  3.368988682E+01  3.368988682E+01  0.000000000E+00  0.00000E+00  9.000E+00
      21    -1     0     0   502   503  0.000000000E+00  0.000000000E+00 -7.752000104E+02  7.752000104E+02  0.000000000E+00  0.00000E+00  9.000E+00
      25     1     1     2     0     0  2.393637096E+01 -2.818128113E+01 -5.119540449E+02  5.282894067E+02  1.250024747E+02  0.00000E+00  9.000E+00
       5     1     1     2   501     0 -1.240466726E+01 -6.432655730E+00 -9.447314321E+01  9.561899455E+01  4.750000000E+00  0.00000E+00  9.000E+00
      -5     1     1     2     0   503  2.519679117E+00  1.484073442E+01 -1.536345293E+02  1.544432817E+02  4.750000000E+00  0.00000E+00  9.000E+00
      -3     1     1     2     0   501 -1.405138282E+01  1.977320244E+01  1.855159384E+01  3.053821423E+01  1.011524364E-06  0.00000E+00  9.000E+00
#rwgt            1           9   7.9360735920125977E-002           4     2080596           0
</event>
<event>
      6   9999 -3.45752E-01  1.11301E+01 -1.00000E+00  1.82425E-01
      21    -1     0     0   501   502  0.000000000E+00  0.000000000E+00  1.331802053E+02  1.331802053E+02  0.000000000E+00  0.00000E+00  9.000E+00
      21    -1     0     0   502   511  0.000000000E+00  0.000000000E+00 -3.889904758E+02  3.889904758E+02  0.000000000E+00  0.00000E+00  9.000E+00
      25     1     1     2     0     0  1.395138757E+02 -1.789143978E+01 -1.351868417E+02  2.316782524E+02  1.249604152E+02  0.00000E+00  9.000E+00
       5     1     1     2   501     0  2.261339269E-02  2.924625310E+00  5.713406120E+01  5.740572614E+01  4.750000000E+00  0.00000E+00  9.000E+00
      -5     1     1     2     0   503 -1.309621422E+02  7.870430417E+00 -1.326728105E+02  1.866485025E+02  4.750000000E+00  0.00000E+00  9.000E+00
      21     1     1     2   503   511 -8.574346906E+00  7.096384051E+00 -4.508467956E+01  4.643820004E+01  4.768371582E-07  0.00000E+00  9.000E+00
#rwgt            1           9  -1.2751867339670850E-003           4     2081818           0
</event>
<event>
      6   9999  3.45752E-01  1.76998E+01 -1.00000E+00  1.64369E-01
      21    -1     0     0   501   512  0.000000000E+00  0.000000000E+00  4.405640797E+01  4.405640797E+01  0.000000000E+00  0.00000E+00  9.000E+00
      21    -1     0     0   502   503  0.000000000E+00  0.000000000E+00 -7.357386768E+02  7.357386768E+02  0.000000000E+00  0.00000E+00  9.000E+00
      25     1     1     2     0     0  1.455321120E+01 -8.956032399E+00 -6.650683309E+02  6.769299712E+02  1.250051784E+02  0.00000E+00  9.000E+00
       5     1     1     2   501     0  3.355411473E-01 -1.543342179E+00 -1.276597475E+00  5.165916575E+00  4.750000000E+00  0.00000E+00  9.000E+00
      -5     1     1     2     0   503 -8.928563101E+00 -6.166783609E+00 -5.872623650E+01  5.990894601E+01  4.750000000E+00  0.00000E+00  9.000E+00
      21     1     1     2   502   512 -5.960189248E+00  1.666615819E+01  3.338889610E+01  3.779025095E+01  2.286830675E-06  0.00000E+00  9.000E+00
#rwgt            1           9   1.2877884605367877E-004           4     2085210           0
</event>
<event>
      6   9999  3.45752E-01  3.74296E+01 -1.00000E+00  1.41879E-01
      21    -1     0     0   501   502  0.000000000E+00  0.000000000E+00  4.721816882E+01  4.721816882E+01  0.000000000E+00  0.00000E+00  9.000E+00
      21    -1     0     0   511   503  0.000000000E+00  0.000000000E+00 -1.736394033E+03  1.736394033E+03  0.000000000E+00  0.00000E+00  9.000E+00
      25     1     1     2     0     0 -8.146065521E+00 -1.155525093E+02 -2.979654061E+02  3.432586817E+02  1.249975940E+02  0.00000E+00  9.000E+00
       5     1     1     2   501     0  3.961851143E+00 -8.141528640E+00  2.066144774E+01  2.305295373E+01  4.750000000E+00  0.00000E+00  9.000E+00
      -5     1     1     2     0   503  2.061792251E+00  8.632466132E+01 -9.734674385E+02  9.773011892E+02  4.750000000E+00  0.00000E+00  9.000E+00
      21     1     1     2   511   502  2.122422127E+00  3.736937666E+01 -4.384044670E+02  4.399993769E+02  5.394796609E-06  0.00000E+00  9.000E+00
#rwgt            1           9   1.5667351731030006E-003           4     2086742           0
</event>
<event>
      6   9999  3.45752E-01  3.37750E+01 -1.00000E+00  1.44584E-01
      21    -1     0     0   501   502  0.000000000E+00  0.000000000E+00  8.964172987E+01  8.964172987E+01  0.000000000E+00  0.00000E+00  9.000E+00
      21    -1     0     0   512   503  0.000000000E+00  0.000000000E+00 -2.885556014E+03  2.885556014E+03  0.000000000E+00  0.00000E+00  9.000E+00
      25     1     1     2     0     0 -1.119424533E+02 -7.456360983E+01 -3.810366140E+02  4.229721887E+02  1.250029055E+02  0.00000E+00  9.000E+00
       5     1     1     2   501     0 -1.542372109E+00  2.664972733E-01  6.215183077E+01  6.235272649E+01  4.750000000E+00  0.00000E+00  9.000E+00
      -5     1     1     2     0   503  1.465868905E+02  8.100584033E+01 -1.123736120E+03  1.136158040E+03  4.750000000E+00  0.00000E+00  9.000E+00
      21     1     1     2   512   502 -3.310206510E+01 -6.708727776E+00 -1.353293381E+03  1.353714789E+03  1.525878906E-05  0.00000E+00  9.000E+00
#rwgt            1           9   1.1286828669074117E-003           4     2088376           0
</event>
<event>
      6   9999  3.45752E-01  6.52704E+00 -1.00000E+00  2.09088E-01
      21    -1     0     0   511   502  0.000000000E+00  0.000000000E+00  1.966026905E+01  1.966026905E+01  0.000000000E+00  0.00000E+00  9.000E+00
      21    -1     0     0   502   503  0.000000000E+00  0.000000000E+00 -8.528453298E+02  8.528453298E+02  0.000000000E+00  0.00000E+00  9.000E+00
      25     1     1     2     0     0 -3.397223649E+01 -6.630116810E+00 -7.206859850E+02  7.322642055E+02  1.249980251E+02  0.00000E+00  9.000E+00
       5     1     1     2   501     0 -4.802586220E-01 -3.527719849E+00  8.309905187E+00  1.021236897E+01  4.750000000E+00  0.00000E+00  9.000E+00
      -5     1     1     2     0   503  2.807567111E+01  8.765590372E+00 -1.197697769E+02  1.234197749E+02  4.750000000E+00  0.00000E+00  9.000E+00
      21     1     1     2   511   501  6.376824005E+00  1.392246287E+00 -1.039204016E+00  6.609249511E+00  1.482646819E-07  0.00000E+00  9.000E+00
#rwgt            1           9   7.0372226562645849E-004           4     2090227           0
</event>
<event>
      6   9999  3.45752E-01  2.39813E+01 -1.00000E+00  1.54417E-01
      21    -1     0     0   501   502  0.000000000E+00  0.000000000E+00  5.345396005E+01  5.345396005E+01  0.000000000E+00  0.00000E+00  9.000E+00
       2    -1     0     0   502     0  0.000000000E+00  0.000000000E+00 -4.350236195E+03  4.350236195E+03  0.000000000E+00  0.00000E+00  9.000E+00
      25     1     1     2     0     0 -2.362208815E+01 -9.811089672E-02 -1.680623740E+02  2.107774759E+02  1.249966803E+02  0.00000E+00  9.000E+00
       5     1     1     2   501     0  2.552794934E+00 -2.101972341E-01  3.163631387E+01  3.209329837E+01  4.750000000E+00  0.00000E+00  9.000E+00
      -5     1     1     2     0   503  1.642830461E+01  2.383620037E+01 -1.172411317E+03  1.172778287E+03  4.750000000E+00  0.00000E+00  9.000E+00
       2     1     1     2   503     0  4.640988607E+00 -2.352789224E+01 -2.987944858E+03  2.988041093E+03  4.315837288E-05  0.00000E+00  9.000E+00
#rwgt            1           9   2.1209709492226712E-003           4     2094396           0
</event>
<event>
      6   9999  3.45752E-01  1.63410E+01 -1.00000E+00  1.67210E-01
      21    -1     0     0   501   502  0.000000000E+00  0.000000000E+00  7.654600146E+00  7.654600146E+00  0.000000000E+00  0.00000E+00  9.000E+00
      21    -1     0     0   511   503  0.000000000E+00  0.000000000E+00 -1.180347831E+03  1.180347831E+03  0.000000000E+00  0.00000E+00  9.000E+00
      25     1     1     2     0     0  1.264496754E+01 -4.954198506E+00 -5.866660692E+02  5.999892164E+02  1.250021749E+02  0.00000E+00  9.000E+00
       5     1     1     2   501     0 -1.969698298E+00 -7.210354454E+00 -2.415331119E+01  2.572574322E+01  4.750000000E+00  0.00000E+00  9.000E+00
      -5     1     1     2     0   503  1.244804082E+00  9.869148621E-01 -1.011627398E+02  1.012866525E+02  4.750000000E+00  0.00000E+00  9.000E+00
      21     1     1     2   511   502 -1.192007332E+01  1.117763810E+01 -4.607111103E+02  4.610008188E+02  5.394796609E-06  0.00000E+00  9.000E+00
#rwgt            1           9  0.39296302591175331                4     2096583           0
</event>
<event>
      6   9999  3.45752E-01  1.57453E+01 -1.00000E+00  1.68566E-01
      21    -1     0     0   501   502  0.000000000E+00  0.000000000E+00  2.917253519E+01  2.917253519E+01  0.000000000E+00  0.00000E+00  9.000E+00
      21    -1     0     0   502   512  0.000000000E+00  0.000000000E+00 -1.495334154E+03  1.495334154E+03  0.000000000E+00  0.00000E+00  9.000E+00
      25     1     1     2     0     0  4.959092053E-05  7.491819920E+01 -3.973401147E+02  4.232232337E+02  1.250040089E+02  0.00000E+00  9.000E+00
       5     1     1     2   501     0 -7.747646027E+00 -2.562775116E+00  1.247782138E+01  1.564775900E+01  4.750000000E+00  0.00000E+00  9.000E+00
      -5     1     1     2     0   503 -7.839131939E+00 -7.458442542E+01 -7.021685105E+02  7.061780711E+02  4.750000000E+00  0.00000E+00  9.000E+00
      21     1     1     2   503   512  1.558672838E+01  2.229001329E+00 -3.791308149E+02  3.794576252E+02  5.394796609E-06  0.00000E+00  9.000E+00
#rwgt            1           9   4.3551877339977740E-003           4     2097893           0
</event>
<event>
      6   9999 -3.45752E-01  1.54749E+01 -1.00000E+00  1.69207E-01
      21    -1     0     0   501   511  0.000000000E+00  0.000000000E+00  1.090465674E+01  1.090465674E+01  0.000000000E+00  0.00000E+00  9.000E+00
      21    -1     0     0   502   503  0.000000000E+00  0.000000000E+00 -8.338258835E+02  8.338258835E+02  0.000000000E+00  0.00000E+00  9.000E+00
      25     1     1     2     0     0 -2.179322865E+01  2.158374362E+01 -7.309163055E+02  7.421622605E+02  1.250014899E+02  0.00000E+00  9.000E+00
       5     1     1     2   501     0 -1.962754424E+00 -3.728811971E-01 -8.683211166E-01  5.225698697E+00  4.750000000E+00  0.00000E+00  9.000E+00
      -5     1     1     2     0   503  9.742572850E+00 -1.464610416E+01 -4.086286594E+01  4.474105950E+01  4.750000000E+00  0.00000E+00  9.000E+00
      21     1     1     2   502   511  1.401341023E+01 -6.564758263E+00 -5.027373414E+01  5.260152147E+01  1.168007728E-06  0.00000E+00  9.000E+00
#rwgt            1           9  -1.8263906689941037E-005           4     2100257           0
</event>
<event>
      6   9999  3.45752E-01  6.51389E+01 -1.00000E+00  1.28916E-01
      21    -1     0     0   501   502  0.000000000E+00  0.000000000E+00  1.316981312E+01  1.316981312E+01  0.000000000E+00  0.00000E+00  9.000E+00
       2    -1     0     0   502     0  0.000000000E+00  0.000000000E+00 -3.253361000E+03  3.253361000E+03  0.000000000E+00  0.00000E+00  9.000E+00
      25     1     1     2     0     0 -2.467977740E+01  4.054471159E+01 -4.826738596E+02  5.008524662E+02  1.250046921E+02  0.00000E+00  9.000E+00
       5     1     1     2   501     0  5.385150208E+00  9.995890005E+00 -2.434146471E+01  2.727612626E+01  4.750000000E+00  0.00000E+00  9.000E+00
      -5     1     1     2     0   503 -4.383235552E+01 -3.447625643E+01 -3.593130880E+02  3.636459065E+02  4.750000000E+00  0.00000E+00  9.000E+00
       2     1     1     2   503     0  6.312698272E+01 -1.606434517E+01 -2.373862775E+03  2.374756314E+03  0.000000000E+00  0.00000E+00  9.000E+00
#rwgt            1           9  0.25187733477044894                4     2101971           0
</event>
<event>
      6   9999 -3.45752E-01  5.99348E+01 -1.00000E+00  1.30707E-01
      21    -1     0     0   502   503  0.000000000E+00  0.000000000E+00  4.755606344E+01  4.755606344E+01  0.000000000E+00  0.00000E+00  9.000E+00
      21    -1     0     0   501   511  0.000000000E+00  0.000000000E+00 -1.504532810E+03  1.504532810E+03  0.000000000E+00  0.00000E+00  9.000E+00
      25     1     1     2     0     0  1.739532261E+02  9.884494675E+01 -4.541059761E+02  5.117297874E+02  1.250003575E+02  0.00000E+00  9.000E+00
       5     1     1     2   501     0 -1.447390947E+02 -1.415935504E+02 -7.753308466E+02  8.013480039E+02  4.750000000E+00  0.00000E+00  9.000E+00
      -5     1     1     2     0   503  1.175182205E+01 -1.000349085E+00 -3.011831618E+01  3.269222369E+01  4.750000000E+00  0.00000E+00  9.000E+00
      21     1     1     2   502   511 -4.096595354E+01  4.374895273E+01 -1.974216077E+02  2.063188586E+02  0.000000000E+00  0.00000E+00  9.000E+00
#rwgt            1           9  -1.1618382395067260E-003           4     2102811           0
</event>
<event>
      6   9999  3.45752E-01  4.04247E+02 -1.00000E+00  9.92719E-02
       1    -1     0     0   501     0  0.000000000E+00  0.000000000E+00  2.293147143E+02  2.293147143E+02  0.000000000E+00  0.00000E+00  9.000E+00
      21    -1     0     0   512   502  0.000000000E+00  0.000000000E+00 -2.004990781E+03  2.004990781E+03  0.000000000E+00  0.00000E+00  9.000E+00
      25     1     1     2     0     0  1.188044739E+02 -4.286620463E+01 -9.666011308E+02  9.827988338E+02  1.249951490E+02  0.00000E+00  9.000E+00
       5     1     1     2   501     0  2.018132524E+01 -6.890855411E+01 -2.910836994E+02  2.998465562E+02  4.750000000E+00  0.00000E+00  9.000E+00
      -5     1     1     2     0   502 -1.190007092E+02 -2.919775400E+02 -4.377940819E+02  5.395352382E+02  4.750000000E+00  0.00000E+00  9.000E+00
       1     1     1     2   512     0 -1.998508997E+01  4.037522987E+02 -8.019715485E+01  4.121248672E+02  1.103957835E-05  0.00000E+00  9.000E+00
#rwgt            1           2  0.41021864215692144                4     2104088           0
</event>
<event>
      6   9999  3.45752E-01  4.65727E+01 -1.00000E+00  1.36459E-01
      21    -1     0     0   511   503  0.000000000E+00  0.000000000E+00  1.733592110E+01  1.733592110E+01  0.000000000E+00  0.00000E+00  9.000E+00
      21    -1     0     0   501   502  0.000000000E+00  0.000000000E+00 -1.006255826E+03  1.006255826E+03  0.000000000E+00  0.00000E+00  9.000E+00
      25     1     1     2     0     0 -4.134924944E+01  1.383845146E+01 -3.364096132E+02  3.615245992E+02  1.250093788E+02  0.00000E+00  9.000E+00
       5     1     1     2   501     0  2.378756357E+00 -8.226953013E-01 -5.050457459E+02  5.050743542E+02  4.750000000E+00  0.00000E+00  9.000E+00
      -5     1     1     2     0   503 -4.973176620E+00  2.410635207E+00 -2.012905191E+01  2.140758927E+01  4.750000000E+00  0.00000E+00  9.000E+00
      21     1     1     2   511   502  4.394366970E+01 -1.542639137E+01 -1.273354937E+02  1.355852043E+02  0.000000000E+00  0.00000E+00  9.000E+00
#rwgt            1           9   2.1752211624162899E-002           4     2104825           0
</event>
<event>
      6   9999  3.45752E-01  4.64236E+00 -1.00000E+00  2.35182E-01
      21    -1     0     0   501   502  0.000000000E+00  0.000000000E+00  1.134681457E+01  1.134681457E+01  0.000000000E+00  0.00000E+00  9.000E+00
      21    -1     0     0   502   512  0.000000000E+00  0.000000000E+00 -4.385349041E+03  4.385349041E+03  0.000000000E+00  0.00000E+00  9.000E+00
      25     1     1     2     0     0 -1.071486192E+01  5.052767109E+01 -6.099230198E+02  6.247397487E+02  1.250032389E+02  0.00000E+00  9.000E+00
       5     1     1     2   501     0 -2.752970221E+00 -8.480887477E-01  1.096874579E+00  5.662484738E+00  4.750000000E+00  0.00000E+00  9.000E+00
      -5     1     1     2     0   503  8.825962260E+00 -4.974721349E+01 -1.155909826E+03  1.157023237E+03  4.750000000E+00  0.00000E+00  9.000E+00
      21     1     1     2   503   512  4.641869883E+00  6.763114319E-02 -2.609266255E+03  2.609270385E+03  3.051757812E-05  0.00000E+00  9.000E+00
#rwgt            1           9   1.8084707877553945E-002           4     2105337           0
</event>
<event>
      6   9999  3.45752E-01  3.99586E+00 -1.00000E+00  2.47943E-01
      21    -1     0     0   501   511  0.000000000E+00  0.000000000E+00  6.465421778E+01  6.465421778E+01  0.000000000E+00  0.00000E+00  9.000E+00
      21    -1     0     0   502   503  0.000000000E+00  0.000000000E+00 -3.703852045E+03  3.703852045E+03  0.000000000E+00  0.00000E+00  9.000E+00
      25     1     1     2     0     0 -8.837957508E+01  1.558984788E+02 -5.335429607E+02  5.765497461E+02  1.250049355E+02  0.00000E+00  9.000E+00
       5     1     1     2   501     0 -1.392874093E+00  6.543247233E+00  1.320368558E+01  1.554522420E+01  4.750000000E+00  0.00000E+00  9.000E+00
      -5     1     1     2     0   503  9.329840412E+01 -1.643217673E+02 -3.144643142E+03  3.150318918E+03  4.750000000E+00  0.00000E+00  9.000E+00
      21     1     1     2   502   511 -3.525954949E+00  1.880041325E+00  2.578458977E+01  2.609237404E+01  2.611744678E-06  0.00000E+00  9.000E+00
#rwgt            1           9   1.0681722594078763E-003           4     2110443           0
</event>
<event>
      6   9999 -3.45752E-01  5.55058E+00 -1.00000E+00  2.18879E-01
      21    -1     0     0   501   502  0.000000000E+00  0.000000000E+00  9.685721811E+00  9.685721811E+00  0.000000000E+00  0.00000E+00  9.000E+00
      21    -1     0     0   512   503  0.000000000E+00  0.000000000E+00 -3.233951879E+03  3.233951879E+03  0.000000000E+00  0.00000E+00  9.000E+00
      25     1     1     2     0     0  8.137854376E+00 -1.659621385E+01 -5.907690675E+02  6.041317013E+02  1.250014494E+02  0.00000E+00  9.000E+00
       5     1     1     2   501     0  8.885790738E-02 -1.448154086E-01  4.509914882E-01  4.774385882E+00  4.750000000E+00  0.00000E+00  9.000E+00
      -5     1     1     2     0   503 -2.747711507E+00  1.585249007E+01 -1.806656829E+02  1.814428363E+02  4.750000000E+00  0.00000E+00  9.000E+00
      21     1     1     2   512   502 -5.479000776E+00  8.885391932E-01 -2.453282398E+03  2.453288677E+03  3.051757812E-05  0.00000E+00  9.000E+00
#rwgt            1           9  -4.4577611211877935E-003           4     2119133           0
</event>
<event>
      6   9999  3.45752E-01  5.61597E+00 -1.00000E+00  2.18139E-01
      21    -1     0     0   501   502  0.000000000E+00  0.000000000E+00  2.266171718E+01  2.266171718E+01  0.000000000E+00  0.00000E+00  9.000E+00
      21    -1     0     0   511   503  0.000000000E+00  0.000000000E+00 -3.303321295E+03  3.303321295E+03  0.000000000E+00  0.00000E+00  9.000E+00
      25     1     1     2     0     0 -9.519596585E+00 -2.046766131E+00 -9.711418909E+02  9.792014286E+02  1.249962143E+02  0.00000E+00  9.000E+00
       5     1     1     2   501     0 -1.914301833E-01 -3.291862038E-01  1.807052569E+01  1.868826926E+01  4.750000000E+00  0.00000E+00  9.000E+00
      -5     1     1     2     0   503  5.225579995E+00 -1.003373607E+00 -5.081318918E+01  5.131136462E+01  4.750000000E+00  0.00000E+00  9.000E+00
      21     1     1     2   511   502  4.485446773E+00  3.379325941E+00 -2.276775024E+03  2.276781950E+03  3.051757812E-05  0.00000E+00  9.000E+00
#rwgt            1           9   6.7105483231037922E-003           4     2122975           0
</event>
<event>
      6   9999  3.45752E-01  1.33288E+01 -1.00000E+00  1.74940E-01
      21    -1     0     0   501   512  0.000000000E+00  0.000000000E+00  5.166948239E+01  5.166948239E+01  0.000000000E+00  0.00000E+00  9.000E+00
      21    -1     0     0   502   503  0.000000000E+00  0.000000000E+00 -9.169393656E+02  9.169393656E+02  0.000000000E+00  0.00000E+00  9.000E+00
      25     1     1     2     0     0  3.043596505E+01 -5.332755062E+00 -4.484848320E+02  4.666018986E+02  1.249956039E+02  0.00000E+00  9.000E+00
       5     1     1     2   501     0 -1.807302589E+01  6.301585221E+01 -2.760787708E+02  2.837951411E+02  4.750000000E+00  0.00000E+00  9.000E+00
      -5     1     1     2     0   503 -8.399281182E+00 -4.495724986E+01 -1.752521229E+02  1.811838053E+02  4.750000000E+00  0.00000E+00  9.000E+00
      21     1     1     2   502   512 -3.963657971E+00 -1.272584728E+01  3.454584248E+01  3.702800300E+01  1.168007728E-06  0.00000E+00  9.000E+00
#rwgt            1           9   3.0451492997873452E-005           4     2127751           0
</event>
<event>
      6   9999  3.45752E-01  1.00611E+01 -1.00000E+00  1.86915E-01
      21    -1     0     0   501   511  0.000000000E+00  0.000000000E+00  2.753639260E+02  2.753639260E+02  0.000000000E+00  0.00000E+00  9.000E+00
      21    -1     0     0   502   503  0.000000000E+00  0.000000000E+00 -5.677877620E+01  5.677877620E+01  0.000000000E+00  0.00000E+00  9.000E+00
      25     1     1     2     0     0 -8.436816693E+00 -8.272903168E-01  1.736207873E+01  1.264884992E+02  1.250041374E+02  0.00000E+00  9.000E+00
       5     1     1     2   501     0 -2.007328209E+00 -3.260413470E+00  1.710477701E+02  1.711565419E+02  4.750000000E+00  0.00000E+00  9.000E+00
      -5     1     1     2     0   503  4.271241861E-01  3.146855639E+00  5.867420759E+00  8.189887780E+00  4.750000000E+00  0.00000E+00  9.000E+00
      21     1     1     2   502   511  1.001702072E+01  9.408481485E-01  2.430788017E+01  2.630777333E+01  3.371747881E-07  0.00000E+00  9.000E+00
#rwgt            1           9  0.18350653843082829                4     2129963           0
</event>
<event>
      6   9999  3.45752E-01  3.22947E+02 -1.00000E+00  1.02149E-01
       2    -1     0     0   501     0  0.000000000E+00  0.000000000E+00  5.869302447E+01  5.869302447E+01  0.000000000E+00  0.00000E+00  9.000E+00
      21    -1     0     0   512   502  0.000000000E+00  0.000000000E+00 -2.249618284E+03  2.249618284E+03  0.000000000E+00  0.00000E+00  9.000E+00
      25     1     1     2     0     0 -2.064616761E+02  6.745592846E+01 -1.185778557E+03  1.211970362E+03  1.249985807E+02  0.00000E+00  9.000E+00
       5     1     1     2   501     0 -8.925516655E+01  2.824740842E+01 -1.884726801E+02  2.104968278E+02  4.750000000E+00  0.00000E+00  9.000E+00
      -5     1     1     2     0   502 -1.135168484E+01  4.315258056E+00 -8.599778939E+01  8.698082824E+01  4.750000000E+00  0.00000E+00  9.000E+00
       2     1     1     2   512     0  3.070685275E+02 -1.000185949E+02 -7.306762321E+02  7.988632900E+02  0.000000000E+00  0.00000E+00  9.000E+00
#rwgt            1           4   7.0993156437115052E-006           4     2132448           0
</event>
<event>
      6   9999  3.45752E-01  1.42807E+01 -1.00000E+00  1.72242E-01
       2    -1     0     0   501     0  0.000000000E+00  0.000000000E+00  4.784312804E+01  4.784312804E+01  0.000000000E+00  0.00000E+00  9.000E+00
      21    -1     0     0   502   503  0.000000000E+00  0.000000000E+00 -9.516049423E+02  9.516049423E+02  0.000000000E+00  0.00000E+00  9.000E+00
      25     1     1     2     0     0  1.609350202E+01  8.494767837E+00 -8.998780429E+02  9.087006294E+02  1.250007198E+02  0.00000E+00  9.000E+00
       5     1     1     2   501     0  1.516754997E+00  1.557627038E+00  5.281046981E+00  7.428236999E+00  4.750000000E+00  0.00000E+00  9.000E+00
      -5     1     1     2     0   503 -1.992346921E+01  4.039696926E+00 -4.233664306E+01  4.720400007E+01  4.750000000E+00  0.00000E+00  9.000E+00
       2     1     1     2   502     0  2.313212190E+00 -1.409209180E+01  3.317182466E+01  3.611520391E+01  1.581489940E-06  0.00000E+00  9.000E+00
#rwgt            1           9   4.8027814977190970E-005           4     2132546           0
</event>
<event>
      6   9999  3.45752E-01  1.72197E+01 -1.00000E+00  1.65336E-01
      21    -1     0     0   501   502  0.000000000E+00  0.000000000E+00  2.655585186E+02  2.655585186E+02  0.000000000E+00  0.00000E+00  9.000E+00
      21    -1     0     0   511   503  0.000000000E+00  0.000000000E+00 -2.137138074E+03  2.137138074E+03  0.000000000E+00  0.00000E+00  9.000E+00
      25     1     1     2     0     0  2.722388341E+00  9.996257579E+00  1.772213627E+02  2.171143606E+02  1.249955904E+02  0.00000E+00  9.000E+00
       5     1     1     2   501     0 -1.739888609E+00  2.264657759E+00  5.969471984E+01  5.995146340E+01  4.750000000E+00  0.00000E+00  9.000E+00
      -5     1     1     2     0   503 -1.353489718E+01 -4.729174999E-01  2.497266462E+00  1.456763304E+01  4.750000000E+00  0.00000E+00  9.000E+00
      21     1     1     2   511   502  1.255239745E+01 -1.178799784E+01 -2.110992905E+03  2.111063136E+03  3.051757812E-05  0.00000E+00  9.000E+00
#rwgt            1           9   2.5777278404885771E-002           4     2134512           0
</event>
<event>
      6   9999  3.45752E-01  1.25075E+01 -1.00000E+00  1.77507E-01
      21    -1     0     0   501   512  0.000000000E+00  0.000000000E+00  4.600040299E+01  4.600040299E+01  0.000000000E+00  0.00000E+00  9.000E+00
      21    -1     0     0   502   503  0.000000000E+00  0.000000000E+00 -1.056812015E+03  1.056812015E+03  0.000000000E+00  0.00000E+00  9.000E+00
      25     1     1     2     0     0  4.628214047E+00 -8.534899600E+00 -9.885621993E+02  9.964789803E+02  1.249834840E+02  0.00000E+00  9.000E+00
       5     1     1     2   501     0 -3.343905891E+00 -2.143462163E+00  1.986023942E+01  2.080307061E+01  4.750000000E+00  0.00000E+00  9.000E+00
      -5     1     1     2     0   503 -4.168714352E+00 -1.492002638E+00 -6.183436020E+01  6.217439065E+01  4.750000000E+00  0.00000E+00  9.000E+00
      21     1     1     2   502   512  2.884406195E+00  1.217036440E+01  1.972470762E+01  2.335597695E+01  1.011524364E-06  0.00000E+00  9.000E+00
#rwgt            1           9   2.5514607266258172E-004           4     2136234           0
</event>
<event>
      6   9999  3.45752E-01  4.14132E+00 -1.00000E+00  2.44770E-01
      21    -1     0     0   511   503  0.000000000E+00  0.000000000E+00  9.665313582E+00  9.665313582E+00  0.000000000E+00  0.00000E+00  9.000E+00
      21    -1     0     0   501   502  0.000000000E+00  0.000000000E+00 -7.811130606E+02  7.811130606E+02  0.000000000E+00  0.00000E+00  9.000E+00
      25     1     1     2     0     0  2.584668757E+01 -1.558363221E+01 -6.370858448E+02  6.499343806E+02  1.250016987E+02  0.00000E+00  9.000E+00
       5     1     1     2   501     0  4.812936571E+00  1.777151407E+00 -3.740822653E+01  3.805601842E+01  4.750000000E+00  0.00000E+00  9.000E+00
      -5     1     1     2     0   503 -2.659272181E+01  1.302490614E+01 -8.581688045E+01  9.090610817E+01  4.750000000E+00  0.00000E+00  9.000E+00
      21     1     1     2   511   502 -4.066902339E+00  7.815746600E-01 -1.113679528E+01  1.188186697E+01  1.192092896E-07  0.00000E+00  9.000E+00
#rwgt            1           9  0.31471120790075241                4     2138996           0
</event>
<event>
      6   9999  3.45752E-01  3.03873E+01 -1.00000E+00  1.47479E-01
      21    -1     0     0   501   502  0.000000000E+00  0.000000000E+00  3.607777150E+03  3.607777150E+03  0.000000000E+00  0.00000E+00  9.000E+00
      21    -1     0     0   502   512  0.000000000E+00  0.000000000E+00 -3.114871170E+01  3.114871170E+01  0.000000000E+00  0.00000E+00  9.000E+00
      25     1     1     2     0     0  2.207223424E+01  8.151167392E+00  2.423678072E+03  2.427013500E+03  1.250020302E+02  0.00000E+00  9.000E+00
       5     1     1     2   501     0  1.461205270E+01  1.158418622E+01  3.583703714E+02  3.588865992E+02  4.750000000E+00  0.00000E+00  9.000E+00
      -5     1     1     2     0   503 -5.142163112E+01  6.839006032E+00  8.148402810E+02  8.165036449E+02  4.750000000E+00  0.00000E+00  9.000E+00
      21     1     1     2   503   512  1.473734417E+01 -2.657435964E+01 -2.026028589E+01  3.652211779E+01  4.756435715E-06  0.00000E+00  9.000E+00
#rwgt            1           9   9.9474497631536329E-003           4     2143235           0
</event>
<event>
      6   9999  3.45752E-01  1.36274E+01 -1.00000E+00  1.74064E-01
      21    -1     0     0   501   511  0.000000000E+00  0.000000000E+00  8.301849771E+02  8.301849771E+02  0.000000000E+00  0.00000E+00  9.000E+00
      21    -1     0     0   502   503  0.000000000E+00  0.000000000E+00 -5.730658179E+01  5.730658179E+01  0.000000000E+00  0.00000E+00  9.000E+00
      25     1     1     2     0     0  5.207904117E+00  5.554684969E+00  2.680849489E+01  1.280641886E+02  1.249950568E+02  0.00000E+00  9.000E+00
       5     1     1     2   501     0 -6.316892932E-02  7.654269534E+00  1.701443129E+02  1.703826328E+02  4.750000000E+00  0.00000E+00  9.000E+00
      -5     1     1     2     0   503 -2.027324358E+00  5.705005480E-02 -5.450528346E+00  7.508931882E+00  4.750000000E+00  0.00000E+00  9.000E+00
      21     1     1     2   502   511 -3.117410829E+00 -1.326600456E+01  5.813761158E+02  5.815358056E+02  1.078959322E-05  0.00000E+00  9.000E+00
#rwgt            1           9   3.3661888960080689E-002           4     2144832           0
</event>
<event>
      6   9999 -3.45752E-01  1.16745E+01 -1.00000E+00  1.80379E-01
      21    -1     0     0   512   502  0.000000000E+00  0.000000000E+00  2.149364445E+02  2.149364445E+02  0.000000000E+00  0.00000E+00  9.000E+00
      21    -1     0     0   502   503  0.000000000E+00  0.000000000E+00 -1.112390616E+03  1.112390616E+03  0.000000000E+00  0.00000E+00  9.000E+00
      25     1     1     2     0     0 -1.832296783E+01 -3.419393063E+01 -9.347635541E+02  9.438821063E+02  1.250022896E+02  0.00000E+00  9.000E+00
       5     1     1     2   501     0  9.814198962E+00  4.172032025E+00  1.857333367E+01  2.193753806E+01  4.750000000E+00  0.00000E+00  9.000E+00
      -5     1     1     2     0   503  2.018309858E+01  3.007519842E+01 -1.692560099E+02  1.731532108E+02  4.750000000E+00  0.00000E+00  9.000E+00
      21     1     1     2   512   501 -1.167432970E+01 -5.329982011E-02  1.879920584E+02  1.883542058E+02  6.031565972E-06  0.00000E+00  9.000E+00
#rwgt            1           9  -2.6278075065296405E-004           4     2147296           0
</event>
<event>
      6   9999  3.45752E-01  1.19687E+01 -1.00000E+00  1.79331E-01
      21    -1     0     0   501   511  0.000000000E+00  0.000000000E+00  2.812006164E+01  2.812006164E+01  0.000000000E+00  0.00000E+00  9.000E+00
      21    -1     0     0   502   503  0.000000000E+00  0.000000000E+00 -7.049408179E+02  7.049408179E+02  0.000000000E+00  0.00000E+00  9.000E+00
      25     1     1     2     0     0  3.371577890E+00  1.063026010E+01 -6.409669664E+02  6.531373171E+02  1.250013320E+02  0.00000E+00  9.000E+00
       5     1     1     2   501     0 -1.381454251E+00  2.591324522E+00  3.262380079E-01  5.593952973E+00  4.750000000E+00  0.00000E+00  9.000E+00
      -5     1     1     2     0   503 -3.462932425E+00 -1.343869456E+00 -5.319007900E+01  5.353078451E+01  4.750000000E+00  0.00000E+00  9.000E+00
      21     1     1     2   502   511  1.472808786E+00 -1.187771516E+01  1.701005109E+01  2.079882500E+01  9.233911863E-07  0.00000E+00  9.000E+00
#rwgt            1           9   1.3275393789046014E-004           4     2150397           0
</event>
<event>
      6   9999  3.45752E-01  4.83762E+01 -1.00000E+00  1.35559E-01
      21    -1     0     0   501   502  0.000000000E+00  0.000000000E+00  2.294058324E+02  2.294058324E+02  0.000000000E+00  0.00000E+00  9.000E+00
      21    -1     0     0   502   512  0.000000000E+00  0.000000000E+00 -5.810358005E+02  5.810358005E+02  0.000000000E+00  0.00000E+00  9.000E+00
      25     1     1     2     0     0 -6.224336580E+01  1.671352165E+02 -9.338558080E+00  2.179919549E+02  1.249994661E+02  0.00000E+00  9.000E+00
       5     1     1     2   501     0 -7.171927624E+00  8.342536292E+00  1.056368480E+02  1.063143481E+02  4.750000000E+00  0.00000E+00  9.000E+00
      -5     1     1     2     0   503  5.441723507E+01 -1.294852014E+02 -3.337500623E+02  3.621316328E+02  4.750000000E+00  0.00000E+00  9.000E+00
      21     1     1     2   503   512  1.499805835E+01 -4.599255141E+01 -1.141781957E+02  1.240036972E+02  1.348699152E-06  0.00000E+00  9.000E+00
#rwgt            1           9  0.85929156121289108                4     2152306           0
</event>
<event>
      6   9999  3.45752E-01  4.59199E+01 -1.00000E+00  1.36796E-01
      21    -1     0     0   501   511  0.000000000E+00  0.000000000E+00  1.144768217E+02  1.144768217E+02  0.000000000E+00  0.00000E+00  9.000E+00
      21    -1     0     0   502   503  0.000000000E+00  0.000000000E+00 -1.733911883E+03  1.733911883E+03  0.000000000E+00  0.00000E+00  9.000E+00
      25     1     1     2     0     0  2.017207700E+01 -1.596420740E+01 -1.127253898E+03  1.134455303E+03  1.250028638E+02  0.00000E+00  9.000E+00
       5     1     1     2   501     0  3.059133034E+01 -3.006995843E+01  9.418863730E+01  1.036054718E+02  4.750000000E+00  0.00000E+00  9.000E+00
      -5     1     1     2     0   503 -1.837360896E+01  1.348362549E+01 -5.531791874E+02  5.536688302E+02  4.750000000E+00  0.00000E+00  9.000E+00
      21     1     1     2   502   511 -3.238979838E+01  3.255054034E+01 -3.319061272E+01  5.665909890E+01  9.536743164E-07  0.00000E+00  9.000E+00
#rwgt            1           9   2.4023613474333095E-004           4     2154295           0
</event>
<event>
      6   9999  3.45752E-01  1.47241E+01 -1.00000E+00  1.71073E-01
      21    -1     0     0   512   502  0.000000000E+00  0.000000000E+00  2.602877976E+03  2.602877976E+03  0.000000000E+00  0.00000E+00  9.000E+00
      21    -1     0     0   502   503  0.000000000E+00  0.000000000E+00 -7.359697362E+01  7.359697362E+01  0.000000000E+00  0.00000E+00  9.000E+00
      25     1     1     2     0     0 -2.531677498E+01 -6.203004036E+01  6.458458148E+00  1.419677436E+02  1.249978541E+02  0.00000E+00  9.000E+00
       5     1     1     2   501     0 -2.468727607E+00 -3.417370810E+00  3.321883535E+02  3.322490598E+02  4.750000000E+00  0.00000E+00  9.000E+00
      -5     1     1     2     0   503  1.613526031E+01  7.445136769E+01  2.460229545E+02  2.575911672E+02  4.750000000E+00  0.00000E+00  9.000E+00
      21     1     1     2   512   501  1.165024228E+01 -9.003956514E+00  1.944611236E+03  1.944666979E+03  2.157918644E-05  0.00000E+00  9.000E+00
#rwgt            1           9   6.3111172421795900E-004           4     2156108           0
</event>
<event>
      6   9999  3.45752E-01  1.00568E+01 -1.00000E+00  1.86935E-01
      21    -1     0     0   501   502  0.000000000E+00  0.000000000E+00  3.769937822E+02  3.769937822E+02  0.000000000E+00  0.00000E+00  9.000E+00
      21    -1     0     0   511   503  0.000000000E+00  0.000000000E+00 -5.968967827E+01  5.968967827E+01  0.000000000E+00  0.00000E+00  9.000E+00
      25     1     1     2     0     0 -2.077292391E+01 -1.341297731E+01  2.188334820E+01  1.292858292E+02  1.249980895E+02  0.00000E+00  9.000E+00
       5     1     1     2   501     0 -3.003888398E+00  5.077929219E+00  2.336997214E+02  2.338224348E+02  4.750000000E+00  0.00000E+00  9.000E+00
      -5     1     1     2     0   503  1.917968780E+01  1.727968859E+01  5.637338643E+01  6.218496007E+01  4.750000000E+00  0.00000E+00  9.000E+00
      21     1     1     2   511   502  4.597124503E+00 -8.944640504E+00  5.347647854E+00  1.139023639E+01  2.384185791E-07  0.00000E+00  9.000E+00
#rwgt            1           9   6.3091269755871674E-003           4     2159197           0
</event>
<event>
      6   9999  3.45752E-01  6.15293E+01 -1.00000E+00  1.30136E-01
      21    -1     0     0   501   502  0.000000000E+00  0.000000000E+00  3.501150117E+01  3.501150117E+01  0.000000000E+00  0.00000E+00  9.000E+00
      21    -1     0     0   512   503  0.000000000E+00  0.000000000E+00 -1.702630782E+03  1.702630782E+03  0.000000000E+00  0.00000E+00  9.000E+00
      25     1     1     2     0     0  4.546233690E+01  2.108456495E+00 -8.906405392E+02  9.005210114E+02  1.250050088E+02  0.00000E+00  9.000E+00
       5     1     1     2   501     0  2.149094169E+01  9.038012297E+00  2.257774521E+01  3.280035548E+01  4.750000000E+00  0.00000E+00  9.000E+00
      -5     1     1     2     0   503 -5.539555534E+00 -7.376647624E+00 -3.928012358E+02  3.929382585E+02  4.750000000E+00  0.00000E+00  9.000E+00
      21     1     1     2   512   502 -6.141372306E+01 -3.769821167E+00 -4.067552516E+02  4.113826584E+02  0.000000000E+00  0.00000E+00  9.000E+00
#rwgt            1           9   1.8319369881297787E-004           4     2162307           0
</event>
<event>
      6   9999  3.45752E-01  8.77271E+00 -1.00000E+00  1.93390E-01
       2    -1     0     0   501     0  0.000000000E+00  0.000000000E+00  3.120721539E+02  3.120721539E+02  0.000000000E+00  0.00000E+00  9.000E+00
      21    -1     0     0   502   503  0.000000000E+00  0.000000000E+00 -2.455979969E+02  2.455979969E+02  0.000000000E+00  0.00000E+00  9.000E+00
      25     1     1     2     0     0 -3.626832704E+01  1.021121567E+01 -8.464283448E+01  1.556023327E+02  1.250120635E+02  0.00000E+00  9.000E+00
       5     1     1     2   501     0 -7.351826210E-01 -5.670324042E-01  1.021966678E+01  1.130778972E+01  4.750000000E+00  0.00000E+00  9.000E+00
      -5     1     1     2     0   503  3.056084407E+01 -3.689983810E+00 -1.229159541E+02  1.268009284E+02  4.750000000E+00  0.00000E+00  9.000E+00
       2     1     1     2   502     0  6.442665596E+00 -5.954199454E+00  2.638132788E+02  2.639591000E+02  0.000000000E+00  0.00000E+00  9.000E+00
#rwgt            1           9   1.2655304420234121E-002           4     2163736           0
</event>
<event>
      6   9999  3.45752E-01  3.40500E+01 -1.00000E+00  1.44366E-01
      21    -1     0     0   511   502  0.000000000E+00  0.000000000E+00  8.094243477E+01  8.094243477E+01  0.000000000E+00  0.00000E+00  9.000E+00
      21    -1     0     0   502   503  0.000000000E+00  0.000000000E+00 -1.061861659E+03  1.061861659E+03  0.000000000E+00  0.00000E+00  9.000E+00
      25     1     1     2     0     0  7.950334155E+00 -1.471993338E+01 -8.804220048E+02  8.894081159E+02  1.249960233E+02  0.00000E+00  9.000E+00
       5     1     1     2   501     0  8.886064012E+00 -1.953527296E+01  1.742596745E+01  2.805023823E+01  4.750000000E+00  0.00000E+00  9.000E+00
      -5     1     1     2     0   503 -1.646709992E+00  3.781025800E+00 -1.661725107E+02  1.662915320E+02  4.750000000E+00  0.00000E+00  9.000E+00
      21     1     1     2   511   501 -1.518968818E+01  3.047418054E+01  4.824932326E+01  5.905420816E+01  1.348699152E-06  0.00000E+00  9.000E+00
#rwgt            1           9   3.6574502005742048E-002           4     2166575           0
</event>
<event>
      6   9999  3.45752E-01  1.01094E+01 -1.00000E+00  1.86697E-01
      21    -1     0     0   512   502  0.000000000E+00  0.000000000E+00  5.587898971E+02  5.587898971E+02  0.000000000E+00  0.00000E+00  9.000E+00
      21    -1     0     0   502   503  0.000000000E+00  0.000000000E+00 -8.776990495E+02  8.776990495E+02  0.000000000E+00  0.00000E+00  9.000E+00
      25     1     1     2     0     0  3.799193434E+00 -5.839644020E-02 -7.933300825E+02  8.031267318E+02  1.250019606E+02  0.00000E+00  9.000E+00
       5     1     1     2   501     0  3.279886128E+00  3.020573397E+00  9.775183759E+00  1.174726497E+01  4.750000000E+00  0.00000E+00  9.000E+00
      -5     1     1     2     0   503  2.992709837E+00 -2.091207996E+00 -7.832315336E+01  7.855194661E+01  4.750000000E+00  0.00000E+00  9.000E+00
      21     1     1     2   512   501 -1.007178940E+01 -8.709689614E-01  5.429688997E+02  5.430630033E+02  7.629394531E-06  0.00000E+00  9.000E+00
#rwgt            1           9   8.7547078619646269E-003           4     2168001           0
</event>
<event>
      6   9999  3.45752E-01  7.97189E+00 -1.00000E+00  1.98196E-01
      21    -1     0     0   501   502  0.000000000E+00  0.000000000E+00  4.265042006E+01  4.265042006E+01  0.000000000E+00  0.00000E+00  9.000E+00
      21    -1     0     0   511   503  0.000000000E+00  0.000000000E+00 -1.389295630E+03  1.389295630E+03  0.000000000E+00  0.00000E+00  9.000E+00
      25     1     1     2     0     0 -9.043107908E+00 -2.548619231E+01 -1.156892035E+03  1.163939696E+03  1.250004515E+02  0.00000E+00  9.000E+00
       5     1     1     2   501     0  4.575605552E+00  8.759927810E+00  3.732063596E+01  3.889813453E+01  4.750000000E+00  0.00000E+00  9.000E+00
      -5     1     1     2     0   503  1.048766229E+01  1.150049872E+01 -2.048952492E+02  2.055404539E+02  4.750000000E+00  0.00000E+00  9.000E+00
      21     1     1     2   511   502 -6.020159930E+00  5.225765780E+00 -2.217856255E+01  2.356776592E+01  3.371747881E-07  0.00000E+00  9.000E+00
#rwgt            1           9   6.5596602991726334E-004           4     2170668           0
</event>
<event>
      6   9999  3.45752E-01  1.47103E+01 -1.00000E+00  1.71109E-01
      21    -1     0     0   512   502  0.000000000E+00  0.000000000E+00  3.010515275E+01  3.010515275E+01  0.000000000E+00  0.00000E+00  9.000E+00
      21    -1     0     0   502   503  0.000000000E+00  0.000000000E+00 -9.102741469E+02  9.102741469E+02  0.000000000E+00  0.00000E+00  9.000E+00
      25     1     1     2     0     0  8.852140657E+01  8.760568934E+00 -5.543502405E+02  5.751887942E+02  1.250006914E+02  0.00000E+00  9.000E+00
       5     1     1     2   501     0 -5.985937331E+01 -2.063626313E+01 -2.629762634E+02  2.705329509E+02  4.750000000E+00  0.00000E+00  9.000E+00
      -5     1     1     2     0   503 -1.396399180E+01  1.127565744E+01 -7.393711033E+01  7.623248849E+01  4.750000000E+00  0.00000E+00  9.000E+00
      21     1     1     2   512   501 -1.469804146E+01  6.000367545E-01  1.109462001E+01  1.842506608E+01  1.066240300E-06  0.00000E+00  9.000E+00
#rwgt            1           9   1.6868711908718788E-003           4     2175446           0
</event>
<event>
      6   9999  3.45752E-01  8.35624E+00 -1.00000E+00  1.95801E-01
      21    -1     0     0   501   502  0.000000000E+00  0.000000000E+00  8.754143821E+00  8.754143821E+00  0.000000000E+00  0.00000E+00  9.000E+00
      21    -1     0     0   502   511  0.000000000E+00  0.000000000E+00 -2.968695382E+03  2.968695382E+03  0.000000000E+00  0.00000E+00  9.000E+00
      25     1     1     2     0     0 -1.730633498E+00  5.701090676E+00 -2.069912638E+03  2.073692252E+03  1.250029113E+02  0.00000E+00  9.000E+00
       5     1     1     2   501     0 -6.084107804E+00  3.206121529E-01  4.607144826E+00  8.994856495E+00  4.750000000E+00  0.00000E+00  9.000E+00
      -5     1     1     2     0   503  1.933274880E-01 -2.595220239E+00 -1.901653131E+02  1.902424279E+02  4.750000000E+00  0.00000E+00  9.000E+00
      21     1     1     2   503   511  7.621413814E+00 -3.426482590E+00 -7.044704314E+02  7.045199894E+02  1.321449896E-05  0.00000E+00  9.000E+00
#rwgt            1           9   8.5480466155231485E-002           4     2177788           0
</event>
<event>
      6   9999  3.45752E-01  7.34383E+00 -1.00000E+00  2.02520E-01
      21    -1     0     0   501   512  0.000000000E+00  0.000000000E+00  3.609305357E+00  3.609305357E+00  0.000000000E+00  0.00000E+00  9.000E+00
      21    -1     0     0   502   503  0.000000000E+00  0.000000000E+00 -1.548625365E+03  1.548625365E+03  0.000000000E+00  0.00000E+00  9.000E+00
      25     1     1     2     0     0 -5.647388924E+00  7.631978643E+00 -1.451362453E+03  1.456766633E+03  1.250036458E+02  0.00000E+00  9.000E+00
       5     1     1     2   501     0  2.967551844E-02  2.833082036E-01 -2.816291205E+01  2.856209480E+01  4.750000000E+00  0.00000E+00  9.000E+00
      -5     1     1     2     0   503  4.122849269E+00 -7.252107337E-01 -3.179398597E+01  3.241826430E+01  4.750000000E+00  0.00000E+00  9.000E+00
      21     1     1     2   502   512  1.494864137E+00 -7.190076112E+00 -3.369670795E+01  3.448767809E+01  4.768371582E-07  0.00000E+00  9.000E+00
#rwgt            1           9   1.0479485901859591E-004           4     2181755           0
</event>
<event>
      6   9999  3.45752E-01  1.06241E+01 -1.00000E+00  1.84466E-01
      21    -1     0     0   501   502  0.000000000E+00  0.000000000E+00  2.485221253E+02  2.485221253E+02  0.000000000E+00  0.00000E+00  9.000E+00
      21    -1     0     0   502   511  0.000000000E+00  0.000000000E+00 -4.096993840E+01  4.096993840E+01  0.000000000E+00  0.00000E+00  9.000E+00
      25     1     1     2     0     0 -1.013184207E+01 -6.016066539E+00  1.708794145E+02  2.120478521E+02  1.250026800E+02  0.00000E+00  9.000E+00
       5     1     1     2   501     0 -3.191194884E-01  2.286719081E-01  4.692211202E+01  4.716355822E+01  4.750000000E+00  0.00000E+00  9.000E+00
      -5     1     1     2     0   503 -9.158658145E-02  7.100878686E+00  6.299596008E+00  1.061500241E+01  4.750000000E+00  0.00000E+00  9.000E+00
      21     1     1     2   503   511  1.054254814E+01 -1.313484054E+00 -1.654893556E+01  1.966565102E+01  3.371747881E-07  0.00000E+00  9.000E+00
#rwgt            1           9   6.1427292876328434E-005           4     2184214           0
</event>
<event>
      6   9999  3.45752E-01  2.52942E+01 -1.00000E+00  1.52797E-01
      21    -1     0     0   501   502  0.000000000E+00  0.000000000E+00  1.987502831E+02  1.987502831E+02  0.000000000E+00  0.00000E+00  9.000E+00
      21    -1     0     0   502   512  0.000000000E+00  0.000000000E+00 -5.643934317E+02  5.643934317E+02  0.000000000E+00  0.00000E+00  9.000E+00
      25     1     1     2     0     0  2.780354792E+00 -2.738645521E+00 -2.028902390E+02  2.383377967E+02  1.250009027E+02  0.00000E+00  9.000E+00
       5     1     1     2   501     0  6.996605875E+00 -1.506245008E-01  1.718479259E+02  1.720559424E+02  4.750000000E+00  0.00000E+00  9.000E+00
      -5     1     1     2     0   503  9.497083876E+00 -1.349081395E+01  2.594621766E-02  1.716857118E+01  4.750000000E+00  0.00000E+00  9.000E+00
      21     1     1     2   503   512 -1.927404454E+01  1.638008397E+01 -3.346267818E+02  3.355814045E+02  3.814697266E-06  0.00000E+00  9.000E+00
#rwgt            1           9   1.6616655190468347E-003           4     2186534           0
</event>
<event>
      6   9999  3.45752E-01  1.65141E+01 -1.00000E+00  1.66830E-01
      21    -1     0     0   501   502  0.000000000E+00  0.000000000E+00  5.619349214E+01  5.619349214E+01  0.000000000E+00  0.00000E+00  9.000E+00
      21    -1     0     0   502   511  0.000000000E+00  0.000000000E+00 -1.587565375E+02  1.587565375E+02  0.000000000E+00  0.00000E+00  9.000E+00
      25     1     1     2     0     0 -1.931209783E+00 -1.452545897E+01 -7.529179380E+01  1.466830654E+02  1.250293922E+02  0.00000E+00  9.000E+00
       5     1     1     2   501     0 -1.240743435E+00 -2.417877185E+00  1.712758260E+01  1.798060511E+01  4.750000000E+00  0.00000E+00  9.000E+00
      -5     1     1     2     0   503 -1.162795580E-01  7.598802081E-01 -2.889707777E+00  5.612829046E+00  4.750000000E+00  0.00000E+00  9.000E+00
      21     1     1     2   503   511  3.288232775E+00  1.618345595E+01 -4.150912638E+01  4.467353013E+01  8.259061849E-07  0.00000E+00  9.000E+00
#rwgt            1           9  0.13112826506084718                4     2188633           0
</event>
<event>
      6   9999 -3.45752E-01  3.02200E+01 -1.00000E+00  1.47633E-01
      21    -1     0     0   502   512  0.000000000E+00  0.000000000E+00  2.685682539E+02  2.685682539E+02  0.000000000E+00  0.00000E+00  9.000E+00
      21    -1     0     0   501   502  0.000000000E+00  0.000000000E+00 -1.273828264E+03  1.273828264E+03  0.000000000E+00  0.00000E+00  9.000E+00
      25     1     1     2     0     0 -8.898370871E+00  8.410037838E+01 -4.310606104E+02  4.567170796E+02  1.250007453E+02  0.00000E+00  9.000E+00
       5     1     1     2   501     0  1.047518741E+02  3.267202791E+01 -5.195576125E+02  5.310396329E+02  4.750000000E+00  0.00000E+00  9.000E+00
      -5     1     1     2     0   503 -1.247887170E+02 -1.254903061E+02 -2.778151965E+02  3.294296385E+02  4.750000000E+00  0.00000E+00  9.000E+00
      21     1     1     2   503   512  2.893521373E+01  8.717899801E+00  2.231734096E+02  2.252101665E+02  4.672030912E-06  0.00000E+00  9.000E+00
#rwgt            1           9  -10.277505972839117                4     2190403           0
</event>
<event>
      6   9999  3.45752E-01  1.87709E+01 -1.00000E+00  1.62342E-01
      21    -1     0     0   501   511  0.000000000E+00  0.000000000E+00  8.908802931E+01  8.908802931E+01  0.000000000E+00  0.00000E+00  9.000E+00
      21    -1     0     0   502   503  0.000000000E+00  0.000000000E+00 -8.189877205E+02  8.189877205E+02  0.000000000E+00  0.00000E+00  9.000E+00
      25     1     1     2     0     0  2.328216346E+01 -2.209036296E+01 -5.068120128E+02  5.229864794E+02  1.250055922E+02  0.00000E+00  9.000E+00
       5     1     1     2   501     0 -8.174698970E+00  1.268192023E+01 -2.385291839E+02  2.390531131E+02  4.750000000E+00  0.00000E+00  9.000E+00
      -5     1     1     2     0   503  2.579197814E-02 -1.697043837E+00 -6.410590628E+01  6.430404608E+01  4.750000000E+00  0.00000E+00  9.000E+00
      21     1     1     2   502   511 -1.513325647E+01  1.110548656E+01  7.954741177E+01  8.173211121E+01  2.697398305E-06  0.00000E+00  9.000E+00
#rwgt            1           9   7.2370323664681324E-002           4     2192585           0
</event>
<event>
      6   9999  3.45752E-01  1.30402E+01 -1.00000E+00  1.75815E-01
      21    -1     0     0   501   502  0.000000000E+00  0.000000000E+00  8.316760952E+00  8.316760952E+00  0.000000000E+00  0.00000E+00  9.000E+00
      21    -1     0     0   502   512  0.000000000E+00  0.000000000E+00 -1.640254177E+03  1.640254177E+03  0.000000000E+00  0.00000E+00  9.000E+00
      25     1     1     2     0     0  7.891400877E+00  8.558697355E+00 -7.020391590E+02  7.131757577E+02  1.250006206E+02  0.00000E+00  9.000E+00
       5     1     1     2   501     0  2.198005165E+00 -3.355888451E-01 -3.916732413E-01  5.259254178E+00  4.750000000E+00  0.00000E+00  9.000E+00
      -5     1     1     2     0   503  1.828476464E+00 -2.930471419E+00 -3.199284663E+01  3.252746108E+01  4.750000000E+00  0.00000E+00  9.000E+00
      21     1     1     2   503   512 -1.191788251E+01 -5.292637091E+00 -8.975137369E+02  8.976084647E+02  1.078959322E-05  0.00000E+00  9.000E+00
#rwgt            1           9   1.8654307319702104E-004           4     2194047           0
</event>
<event>
      6   9999 -3.45752E-01  5.90039E+00 -1.00000E+00  2.15076E-01
      21    -1     0     0   501   511  0.000000000E+00  0.000000000E+00  6.920245795E+01  6.920245795E+01  0.000000000E+00  0.00000E+00  9.000E+00
      21    -1     0     0   502   503  0.000000000E+00  0.000000000E+00 -9.262352623E+02  9.262352623E+02  0.000000000E+00  0.00000E+00  9.000E+00
      25     1     1     2     0     0 -4.036096258E+00  9.461386371E+00 -8.561012828E+02  8.652402711E+02  1.250020500E+02  0.00000E+00  9.000E+00
       5     1     1     2   501     0  5.203228239E+00  1.420382759E+00  1.034611306E+01  1.259744525E+01  4.750000000E+00  0.00000E+00  9.000E+00
      -5     1     1     2     0   503  3.492960804E+00 -7.262631193E+00 -6.393366727E+01  6.461441710E+01  4.750000000E+00  0.00000E+00  9.000E+00
      21     1     1     2   502   511 -4.660092785E+00 -3.619137938E+00  5.265603268E+01  5.298558673E+01  1.651812370E-06  0.00000E+00  9.000E+00
#rwgt            1           9  -1.6843542437428700E-002           4     2196435           0
</event>
<event>
      6   9999  3.45752E-01  1.51102E+01 -1.00000E+00  1.70096E-01
      21    -1     0     0   502   503  0.000000000E+00  0.000000000E+00  4.122626877E+00  4.122626877E+00  0.000000000E+00  0.00000E+00  9.000E+00
      21    -1     0     0   512   502  0.000000000E+00  0.000000000E+00 -3.017043005E+03  3.017043005E+03  0.000000000E+00  0.00000E+00  9.000E+00
      25     1     1     2     0     0 -5.816196731E+01  2.918060393E+01 -1.496537818E+03  1.503158384E+03  1.250014657E+02  0.00000E+00  9.000E+00
       5     1     1     2   501     0  4.929358993E+00 -4.525432423E+00 -1.040214395E+02  1.043446237E+02  4.750000000E+00  0.00000E+00  9.000E+00
      -5     1     1     2     0   503  4.329196221E+01 -1.327523521E+01 -1.051169284E+03  1.052154861E+03  4.750000000E+00  0.00000E+00  9.000E+00
      21     1     1     2   512   501  9.940646111E+00 -1.137993630E+01 -3.611918379E+02  3.615077636E+02  6.607249480E-06  0.00000E+00  9.000E+00
#rwgt            1           9   2.7661796686592353E-003           4     2200643           0
</event>
<event>
      6   9999  3.45752E-01  7.43585E+01 -1.00000E+00  1.26169E-01
      21    -1     0     0   501   502  0.000000000E+00  0.000000000E+00  2.070519784E+03  2.070519784E+03  0.000000000E+00  0.00000E+00  9.000E+00
      21    -1     0     0   511   503  0.000000000E+00  0.000000000E+00 -4.418239746E+01  4.418239746E+01  0.000000000E+00  0.00000E+00  9.000E+00
      25     1     1     2     0     0 -1.122959694E+02  1.151293465E+02  5.478268747E+02  5.844713728E+02  1.250093992E+02  0.00000E+00  9.000E+00
       5     1     1     2   501     0 -1.611318576E+01  1.102408021E+01  1.145910149E+03  1.146086296E+03  4.750000000E+00  0.00000E+00  9.000E+00
      -5     1     1     2     0   503  8.436679505E+01 -6.624141039E+01  2.549317459E+02  2.766196633E+02  4.750000000E+00  0.00000E+00  9.000E+00
      21     1     1     2   511   502  4.404236010E+01 -5.991201631E+01  7.766861623E+01  1.075248489E+02  2.523185073E-06  0.00000E+00  9.000E+00
#rwgt            1           9   2.8033058042786725E-004           4     2202373           0
</event>
<event>
      6   9999 -3.45752E-01  1.53347E+01 -1.00000E+00  1.69545E-01
       1    -1     0     0   501     0  0.000000000E+00  0.000000000E+00  1.028273520E+03  1.028273520E+03  0.000000000E+00  0.00000E+00  9.000E+00
      21    -1     0     0   502   503  0.000000000E+00  0.000000000E+00 -1.309235964E+03  1.309235964E+03  0.000000000E+00  0.00000E+00  9.000E+00
      25     1     1     2     0     0  9.689709377E-01  5.914059900E+00 -1.253985789E+03  1.260214537E+03  1.249976178E+02  0.00000E+00  9.000E+00
       5     1     1     2   501     0  1.794026871E+01  5.508014138E+00  4.172130124E+01  4.599370542E+01  4.750000000E+00  0.00000E+00  9.000E+00
      -5     1     1     2     0   503 -3.630336940E+00 -1.011534447E+01 -4.924850415E+01  5.063079302E+01  4.750000000E+00  0.00000E+00  9.000E+00
       1     1     1     2   502     0 -1.527890271E+01 -1.306729565E+00  9.805505477E+02  9.806704487E+02  1.078959322E-05  0.00000E+00  9.000E+00
#rwgt            1           9  -1.5902431093617271E-004           4     2203061           0
</event>
<event>
      6   9999 -3.45752E-01  1.86865E+01 -1.00000E+00  1.62495E-01
      21    -1     0     0   501   511  0.000000000E+00  0.000000000E+00  3.629734085E+02  3.629734085E+02  0.000000000E+00  0.00000E+00  9.000E+00
      21    -1     0     0   502   503  0.000000000E+00  0.000000000E+00 -9.067211534E+01  9.067211534E+01  0.000000000E+00  0.00000E+00  9.000E+00
      25     1     1     2     0     0  7.129635946E+00 -1.054763784E+01 -3.831178981E+01  1.313550430E+02  1.249970788E+02  0.00000E+00  9.000E+00
       5     1     1     2   501     0 -7.728328534E+00 -1.789673207E+00  2.071429080E+02  2.073491665E+02  4.750000000E+00  0.00000E+00  9.000E+00
      -5     1     1     2     0   503 -7.277009079E+00 -4.608463664E+00  3.983895699E-02  9.836507796E+00  4.750000000E+00  0.00000E+00  9.000E+00
      21     1     1     2   502   511  7.875701666E+00  1.694577471E+01  1.034303360E+02  1.051048065E+02  1.348699152E-06  0.00000E+00  9.000E+00
#rwgt            1           9  -8.8106930719461843E-004           4     2205900           0
</event>
<event>
      6   9999 -3.45752E-01  1.47116E+01 -1.00000E+00  1.71105E-01
      21    -1     0     0   512   502  0.000000000E+00  0.000000000E+00  1.646107632E+01  1.646107632E+01  0.000000000E+00  0.00000E+00  9.000E+00
      21    -1     0     0   502   503  0.000000000E+00  0.000000000E+00 -4.108710878E+03  4.108710878E+03  0.000000000E+00  0.00000E+00  9.000E+00
      25     1     1     2     0     0 -1.130807800E+02  1.857250741E+02 -1.999291089E+03  2.014961815E+03  1.250007764E+02  0.00000E+00  9.000E+00
       5     1     1     2   501     0  1.744743276E+00 -3.462834954E-01 -2.230438469E+00  5.540884146E+00  4.750000000E+00  0.00000E+00  9.000E+00
      -5     1     1     2     0   503  1.259050283E+02 -1.833355343E+02 -2.031403188E+03  2.043547276E+03  4.750000000E+00  0.00000E+00  9.000E+00
      21     1     1     2   512   501 -1.456899157E+01 -2.043256330E+00 -5.932508722E+01  6.112197956E+01  1.168007728E-06  0.00000E+00  9.000E+00
#rwgt            1           9  -1.8287650805156798E-002           4     2207926           0
</event>
<event>
      6   9999  3.45752E-01  8.52434E+00 -1.00000E+00  1.94806E-01
      21    -1     0     0   511   502  0.000000000E+00  0.000000000E+00  7.455201682E+01  7.455201682E+01  0.000000000E+00  0.00000E+00  9.000E+00
      21    -1     0     0   502   503  0.000000000E+00  0.000000000E+00 -1.545497696E+03  1.545497696E+03  0.000000000E+00  0.00000E+00  9.000E+00
      25     1     1     2     0     0  1.299705490E+02 -3.470132898E+01 -1.139418294E+03  1.154121327E+03  1.250018481E+02  0.00000E+00  9.000E+00
       5     1     1     2   501     0  1.893872598E-01 -1.058122964E+01  5.415501554E+01  5.538344966E+01  4.750000000E+00  0.00000E+00  9.000E+00
      -5     1     1     2     0   503 -1.237967395E+02  3.961034190E+01 -3.747649366E+02  3.966937511E+02  4.750000000E+00  0.00000E+00  9.000E+00
      21     1     1     2   511   501 -6.363196814E+00  5.672216718E+00 -1.091746381E+01  1.385118523E+01  3.576278687E-07  0.00000E+00  9.000E+00
#rwgt            1           9   4.0085003442002815E-004           4     2210694           0
</event>
<event>
      6   9999  3.45752E-01  5.81392E+00 -1.00000E+00  2.15982E-01
      21    -1     0     0   512   502  0.000000000E+00  0.000000000E+00  2.205140846E+02  2.205140846E+02  0.000000000E+00  0.00000E+00  9.000E+00
      21    -1     0     0   502   503  0.000000000E+00  0.000000000E+00 -6.618647627E+01  6.618647627E+01  0.000000000E+00  0.00000E+00  9.000E+00
      25     1     1     2     0     0  9.402722308E+00 -8.008616840E+00 -2.511941868E+00  1.256111198E+02  1.249771756E+02  0.00000E+00  9.000E+00
       5     1     1     2   501     0 -4.231697758E-01 -3.632678449E+00  1.103329527E+02  1.104956939E+02  4.750000000E+00  0.00000E+00  9.000E+00
      -5     1     1     2     0   503 -6.423022388E+00  6.419622724E+00  1.283826600E+01  1.642712228E+01  4.750000000E+00  0.00000E+00  9.000E+00
      21     1     1     2   512   501 -2.556530145E+00  5.221672565E+00  3.366833154E+01  3.416662494E+01  0.000000000E+00  0.00000E+00  9.000E+00
#rwgt            1           9   2.9750857717084158                4     2215434           0
</event>
<event>
      6   9999  3.45752E-01  6.05095E+00 -1.00000E+00  2.13548E-01
      21    -1     0     0   511   502  0.000000000E+00  0.000000000E+00  3.795985093E+01  3.795985093E+01  0.000000000E+00  0.00000E+00  9.000E+00
      21    -1     0     0   502   503  0.000000000E+00  0.000000000E+00 -7.906514257E+02  7.906514257E+02  0.000000000E+00  0.00000E+00  9.000E+00
      25     1     1     2     0     0  8.914972249E+00 -8.392169348E-01 -7.722439123E+02  7.823463317E+02  1.249997668E+02  0.00000E+00  9.000E+00
       5     1     1     2   501     0 -7.283045310E-02 -1.618222522E+00  4.245290233E+00  6.573350559E+00  4.750000000E+00  0.00000E+00  9.000E+00
      -5     1     1     2     0   503 -2.834536504E+00  3.180396079E+00 -1.098967883E+01  1.270767710E+01  4.750000000E+00  0.00000E+00  9.000E+00
      21     1     1     2   511   501 -6.007605292E+00 -7.229566227E-01  2.629672609E+01  2.698391726E+01  1.348699152E-06  0.00000E+00  9.000E+00
#rwgt            1           9   1.1850568940831866E-002           4     2219466           0
</event>
<event>
      6   9999  3.45752E-01  5.73277E+00 -1.00000E+00  2.16852E-01
      21    -1     0     0   501   502  0.000000000E+00  0.000000000E+00  9.677060205E+00  9.677060205E+00  0.000000000E+00  0.00000E+00  9.000E+00
      21    -1     0     0   512   503  0.000000000E+00  0.000000000E+00 -7.761919660E+02  7.761919660E+02  0.000000000E+00  0.00000E+00  9.000E+00
      25     1     1     2     0     0 -1.088668277E+00  2.483295962E+00 -5.932136281E+02  6.062464481E+02  1.249999809E+02  0.00000E+00  9.000E+00
       5     1     1     2   501     0 -2.700958627E-01  1.602612543E+00  8.479586208E-01  5.091448965E+00  4.750000000E+00  0.00000E+00  9.000E+00
      -5     1     1     2     0   503  1.990406031E+00  1.611956593E+00 -1.076763988E+02  1.078115461E+02  4.750000000E+00  0.00000E+00  9.000E+00
      21     1     1     2   512   502 -6.316418917E-01 -5.697865098E+00 -6.647283754E+01  6.671958309E+01  9.536743164E-07  0.00000E+00  9.000E+00
#rwgt            1           9   7.3129640593278455E-003           4     2222964           0
</event>
<event>
      6   9999  3.45752E-01  1.55343E+01 -1.00000E+00  1.69065E-01
      21    -1     0     0   511   503  0.000000000E+00  0.000000000E+00  3.442355795E+01  3.442355795E+01  0.000000000E+00  0.00000E+00  9.000E+00
      21    -1     0     0   501   502  0.000000000E+00  0.000000000E+00 -2.987216779E+03  2.987216779E+03  0.000000000E+00  0.00000E+00  9.000E+00
      25     1     1     2     0     0  9.734322119E+01 -5.491507412E+01 -1.237983232E+03  1.249287231E+03  1.249989368E+02  0.00000E+00  9.000E+00
       5     1     1     2   501     0 -8.590756715E+01  6.834309289E+01 -1.669006572E+03  1.672619618E+03  4.750000000E+00  0.00000E+00  9.000E+00
      -5     1     1     2     0   503  2.394230065E+00 -6.353592757E+00 -7.026734220E+01  7.075423915E+01  4.750000000E+00  0.00000E+00  9.000E+00
      21     1     1     2   511   502 -1.382988410E+01 -7.074426017E+00  2.446392525E+01  2.897924838E+01  2.211002945E-06  0.00000E+00  9.000E+00
#rwgt            1           9   6.2528932340320733E-004           4     2226923           0
</event>
<event>
      6   9999  3.45752E-01  2.31225E+01 -1.00000E+00  1.55546E-01
      21    -1     0     0   501   502  0.000000000E+00  0.000000000E+00  5.434263561E+01  5.434263561E+01  0.000000000E+00  0.00000E+00  9.000E+00
      21    -1     0     0   502   512  0.000000000E+00  0.000000000E+00 -1.563680418E+03  1.563680418E+03  0.000000000E+00  0.00000E+00  9.000E+00
      25     1     1     2     0     0 -3.540103569E+01 -1.797707625E+01 -1.076929611E+03  1.084886186E+03  1.249969581E+02  0.00000E+00  9.000E+00
       5     1     1     2   501     0  1.341276661E+00  2.510721991E+00  4.938861272E+01  4.969809166E+01  4.750000000E+00  0.00000E+00  9.000E+00
      -5     1     1     2     0   503  1.145970506E+01  1.057888452E+01 -2.330764173E+02  2.336459210E+02  4.750000000E+00  0.00000E+00  9.000E+00
      21     1     1     2   503   512  2.260005398E+01  4.887469736E+00 -2.487203669E+02  2.497928556E+02  3.814697266E-06  0.00000E+00  9.000E+00
#rwgt            1           9   2.3505771145508120E-004           4     2228902           0
</event>
<event>
      6   9999  3.45752E-01  2.65456E+01 -1.00000E+00  1.51359E-01
      21    -1     0     0   511   502  0.000000000E+00  0.000000000E+00  5.773368581E+02  5.773368581E+02  0.000000000E+00  0.00000E+00  9.000E+00
      21    -1     0     0   502   503  0.000000000E+00  0.000000000E+00 -1.608777153E+03  1.608777153E+03  0.000000000E+00  0.00000E+00  9.000E+00
      25     1     1     2     0     0  3.127547837E+00 -6.256690126E+00 -1.466312761E+03  1.471648082E+03  1.250041499E+02  0.00000E+00  9.000E+00
       5     1     1     2   501     0 -1.666499024E+01 -2.905983704E+01  1.004330445E+02  1.059790307E+02  4.750000000E+00  0.00000E+00  9.000E+00
      -5     1     1     2     0   503  4.403301729E+00  1.039190501E+01 -1.363755401E+02  1.369241804E+02  4.750000000E+00  0.00000E+00  9.000E+00
      21     1     1     2   511   501  9.134140674E+00  2.492462215E+01  4.708149613E+02  4.715627181E+02  5.394796609E-06  0.00000E+00  9.000E+00
#rwgt            1           9   1.0686954807501472E-004           4     2231024           0
</event>
<event>
      6   9999  3.45752E-01  2.43500E+01 -1.00000E+00  1.53949E-01
      21    -1     0     0   512   502  0.000000000E+00  0.000000000E+00  7.076640822E+02  7.076640822E+02  0.000000000E+00  0.00000E+00  9.000E+00
      21    -1     0     0   502   503  0.000000000E+00  0.000000000E+00 -1.166217888E+03  1.166217888E+03  0.000000000E+00  0.00000E+00  9.000E+00
      25     1     1     2     0     0 -7.717443711E+01  1.318008184E+01 -3.743887103E+02  4.023944126E+02  1.249989945E+02  0.00000E+00  9.000E+00
       5     1     1     2   501     0 -5.648408223E+00 -1.230433963E+01  2.362849691E+01  2.764361871E+01  4.750000000E+00  0.00000E+00  9.000E+00
      -5     1     1     2     0   503  6.478736252E+01 -1.723554914E+01 -7.741404014E+02  7.770523728E+02  4.750000000E+00  0.00000E+00  9.000E+00
      21     1     1     2   512   501  1.803548281E+01  1.635980693E+01  6.663468093E+02  6.667915657E+02  1.078959322E-05  0.00000E+00  9.000E+00
#rwgt            1           9   1.2007375084927282E-005           4     2233588           0
</event>
<event>
      6   9999  3.45752E-01  3.71864E+00 -1.00000E+00  2.54594E-01
      21    -1     0     0   501   511  0.000000000E+00  0.000000000E+00  1.284117957E+01  1.284117957E+01  0.000000000E+00  0.00000E+00  9.000E+00
      21    -1     0     0   502   503  0.000000000E+00  0.000000000E+00 -7.687405349E+02  7.687405349E+02  0.000000000E+00  0.00000E+00  9.000E+00
      25     1     1     2     0     0 -1.772303811E+01  5.642073636E+00 -5.305648231E+02  5.454080496E+02  1.249998798E+02  0.00000E+00  9.000E+00
       5     1     1     2   501     0 -5.128930246E-02 -5.765601741E-01  2.702953057E+00  5.495771780E+00  4.750000000E+00  0.00000E+00  9.000E+00
      -5     1     1     2     0   503  1.694797202E+01 -1.439850769E+00 -2.254664349E+02  2.261569869E+02  4.750000000E+00  0.00000E+00  9.000E+00
      21     1     1     2   502   511  8.263553970E-01 -3.625662694E+00 -2.571050304E+00  4.520906201E+00  7.884953353E-08  0.00000E+00  9.000E+00
#rwgt            1           9   2.4656628397666628E-004           4     2235386           0
</event>
<event>
      6   9999  3.45752E-01  3.18829E+01 -1.00000E+00  1.46148E-01
      21    -1     0     0   501   502  0.000000000E+00  0.000000000E+00  4.727093905E+03  4.727093905E+03  0.000000000E+00  0.00000E+00  9.000E+00
      21    -1     0     0   502   512  0.000000000E+00  0.000000000E+00 -1.540597035E+01  1.540597035E+01  0.000000000E+00  0.00000E+00  9.000E+00
      25     1     1     2     0     0 -1.189091770E+02  9.526930704E+01  2.466131299E+03  2.473993620E+03  1.250008534E+02  0.00000E+00  9.000E+00
       5     1     1     2   501     0  1.307958739E+00 -6.618672303E+00  1.132866582E+03  1.132896629E+03  4.750000000E+00  0.00000E+00  9.000E+00
      -5     1     1     2     0   503  1.484909181E+02 -9.654646202E+01  1.054276899E+03  1.069061792E+03  4.750000000E+00  0.00000E+00  9.000E+00
      21     1     1     2   503   512 -3.088969990E+01  7.895827288E+00  5.841315375E+01  6.654783377E+01  1.168007728E-06  0.00000E+00  9.000E+00
#rwgt            1           9   2.6083802641592153E-003           4     2240287           0
</event>
<event>
      6   9999  3.45752E-01  1.06632E+01 -1.00000E+00  1.84303E-01
      21    -1     0     0   502   503  0.000000000E+00  0.000000000E+00  9.009346873E+00  9.009346873E+00  0.000000000E+00  0.00000E+00  9.000E+00
      21    -1     0     0   501   511  0.000000000E+00  0.000000000E+00 -1.176432617E+03  1.176432617E+03  0.000000000E+00  0.00000E+00  9.000E+00
      25     1     1     2     0     0 -1.466602623E+00  2.091133717E+01 -6.727064072E+02  6.845425908E+02  1.250008539E+02  0.00000E+00  9.000E+00
       5     1     1     2   501     0  7.685618975E+00 -2.051812113E+01 -8.342846922E+01  8.638827472E+01  4.750000000E+00  0.00000E+00  9.000E+00
      -5     1     1     2     0   503  1.428700125E+00  7.037550740E+00 -1.049033160E+01  1.357121445E+01  4.750000000E+00  0.00000E+00  9.000E+00
      21     1     1     2   502   511 -7.647716476E+00 -7.430766787E+00 -4.007980624E+02  4.009398841E+02  5.394796609E-06  0.00000E+00  9.000E+00
#rwgt            1           9   59.990075331388383                4     2242120           0
</event>
<event>
      6   9999  3.45752E-01  1.94659E+01 -1.00000E+00  1.61113E-01
      21    -1     0     0   512   502  0.000000000E+00  0.000000000E+00  1.086236280E+03  1.086236280E+03  0.000000000E+00  0.00000E+00  9.000E+00
      21    -1     0     0   502   503  0.000000000E+00  0.000000000E+00 -6.487682193E+01  6.487682193E+01  0.000000000E+00  0.00000E+00  9.000E+00
      25     1     1     2     0     0  2.370265319E+01  2.441887954E+01  9.212959674E+00  1.298888144E+02  1.250125115E+02  0.00000E+00  9.000E+00
       5     1     1     2   501     0 -2.741106921E+00 -3.514512845E+00  8.587630231E+02  8.587877257E+02  4.750000000E+00  0.00000E+00  9.000E+00
      -5     1     1     2     0   503 -2.919903458E+01 -3.267288869E+00  5.917734433E+01  6.624031536E+01  4.750000000E+00  0.00000E+00  9.000E+00
      21     1     1     2   512   501  8.237488311E+00 -1.763707783E+01  9.420613065E+01  9.619624619E+01  1.348699152E-06  0.00000E+00  9.000E+00
#rwgt            1           9   2.6376860117932684E-005           4     2244432           0
</event>
<event>
      6   9999  3.45752E-01  7.58573E+00 -1.00000E+00  2.00789E-01
      21    -1     0     0   501   502  0.000000000E+00  0.000000000E+00  9.547018167E+01  9.547018167E+01  0.000000000E+00  0.00000E+00  9.000E+00
       1    -1     0     0   502     0  0.000000000E+00  0.000000000E+00 -1.655463926E+03  1.655463926E+03  0.000000000E+00  0.00000E+00  9.000E+00
      25     1     1     2     0     0 -9.878185939E+01  8.281700946E+01 -4.102652742E+02  4.478384377E+02  1.250006329E+02  0.00000E+00  9.000E+00
       5     1     1     2   501     0 -6.260782635E+00 -1.091910857E+01  7.236730194E+01  7.360715469E+01  4.750000000E+00  0.00000E+00  9.000E+00
      -5     1     1     2     0   503  9.980523929E+01 -7.738542099E+01 -1.119038428E+03  1.126152368E+03  4.750000000E+00  0.00000E+00  9.000E+00
       1     1     1     2   503     0  5.237402732E+00  5.487520097E+00 -1.030573434E+02  1.033361470E+02  1.348699152E-06  0.00000E+00  9.000E+00
#rwgt            1           9   4.3005044832564872E-005           4     2247084           0
</event>
<event>
      6   9999  3.45752E-01  3.75324E+01 -1.00000E+00  1.41809E-01
      21    -1     0     0   501   502  0.000000000E+00  0.000000000E+00  1.725211216E+01  1.725211216E+01  0.000000000E+00  0.00000E+00  9.000E+00
      21    -1     0     0   511   503  0.000000000E+00  0.000000000E+00 -1.056051187E+03  1.056051187E+03  0.000000000E+00  0.00000E+00  9.000E+00
      25     1     1     2     0     0  1.802999204E+01 -3.986235066E+01 -8.722844623E+02  8.822800686E+02  1.249953945E+02  0.00000E+00  9.000E+00
       5     1     1     2   501     0 -1.595910838E+00 -4.033722622E+00  9.734752693E-01  6.505997518E+00  4.750000000E+00  0.00000E+00  9.000E+00
      -5     1     1     2     0   503 -2.315672207E+01  6.970603242E+00 -1.834315325E+01  3.072225346E+01  4.750000000E+00  0.00000E+00  9.000E+00
      21     1     1     2   511   502  6.722640868E+00  3.692547004E+01 -1.491449340E+02  1.537949791E+02  1.907348633E-06  0.00000E+00  9.000E+00
#rwgt            1           9   3.5697957002318864E-004           4     2253601           0
</event>
<event>
      6   9999 -3.45752E-01  4.22568E+01 -1.00000E+00  1.38817E-01
      21    -1     0     0   501   502  0.000000000E+00  0.000000000E+00  1.807744506E+02  1.807744506E+02  0.000000000E+00  0.00000E+00  9.000E+00
      21    -1     0     0   502   512  0.000000000E+00  0.000000000E+00 -2.043010211E+03  2.043010211E+03  0.000000000E+00  0.00000E+00  9.000E+00
      25     1     1     2     0     0  8.915415887E+01 -7.385010159E+01 -1.914747531E+03  1.922312420E+03  1.249985235E+02  0.00000E+00  9.000E+00
       5     1     1     2   501     0  1.694437221E+00  7.665162998E-02  8.694318586E+01  8.708936250E+01  4.750000000E+00  0.00000E+00  9.000E+00
      -5     1     1     2     0   503 -5.578203573E+01  5.019437710E+01  6.937435408E+01  1.023057892E+02  4.750000000E+00  0.00000E+00  9.000E+00
      21     1     1     2   503   512 -3.506656036E+01  2.357907286E+01 -1.038057699E+02  1.120770904E+02  2.336015456E-06  0.00000E+00  9.000E+00
#rwgt            1           9  -2.6700162656386004E-004           4     2255346           0
</event>
<event>
      6   9999  3.45752E-01  3.92781E+01 -1.00000E+00  1.40646E-01
      21    -1     0     0   511   502  0.000000000E+00  0.000000000E+00  4.773692693E+00  4.773692693E+00  0.000000000E+00  0.00000E+00  9.000E+00
       2    -1     0     0   501     0  0.000000000E+00  0.000000000E+00 -3.311053837E+03  3.311053837E+03  0.000000000E+00  0.00000E+00  9.000E+00
      25     1     1     2     0     0 -2.064695581E+00  3.138326807E+01 -1.139916498E+03  1.147180741E+03  1.249994308E+02  0.00000E+00  9.000E+00
       5     1     1     2   501     0 -1.751634005E+00  6.284228435E-01 -1.870664842E+02  1.871360338E+02  4.750000000E+00  0.00000E+00  9.000E+00
      -5     1     1     2     0   502 -3.482663731E+01 -2.497703490E+01 -1.495594924E+03  1.496216390E+03  4.750000000E+00  0.00000E+00  9.000E+00
       2     1     1     2   511     0  3.864296689E+01 -7.034656020E+00 -4.837022383E+02  4.852943649E+02  5.394796609E-06  0.00000E+00  9.000E+00
#rwgt            1           3   1.2571164103981071E-005           4     2258011           0
</event>
<event>
      6   9999  3.45752E-01  4.52638E+01 -1.00000E+00  1.37141E-01
      21    -1     0     0   512   502  0.000000000E+00  0.000000000E+00  4.427751573E+01  4.427751573E+01  0.000000000E+00  0.00000E+00  9.000E+00
      21    -1     0     0   502   503  0.000000000E+00  0.000000000E+00 -1.426348072E+03  1.426348072E+03  0.000000000E+00  0.00000E+00  9.000E+00
      25     1     1     2     0     0 -1.718651315E+02  1.768157775E+01 -4.746228252E+02  5.203288514E+02  1.250001034E+02  0.00000E+00  9.000E+00
       5     1     1     2   501     0  3.430187779E+00 -7.677467870E+00 -1.687477597E+00  9.804069652E+00  4.750000000E+00  0.00000E+00  9.000E+00
      -5     1     1     2     0   503  2.044872179E+02  1.736455777E+01 -7.889691004E+02  8.152369926E+02  4.750000000E+00  0.00000E+00  9.000E+00
      21     1     1     2   512   501 -3.605227419E+01 -2.736866765E+01 -1.167911528E+02  1.252556738E+02  0.000000000E+00  0.00000E+00  9.000E+00
#rwgt            1           9   5.9686402970344041E-002           4     2259932           0
</event>
<event>
      6   9999  3.45752E-01  6.25988E+00 -1.00000E+00  2.11525E-01
      21    -1     0     0   501   502  0.000000000E+00  0.000000000E+00  9.323571817E+00  9.323571817E+00  0.000000000E+00  0.00000E+00  9.000E+00
      21    -1     0     0   502   511  0.000000000E+00  0.000000000E+00 -1.073589624E+03  1.073589624E+03  0.000000000E+00  0.00000E+00  9.000E+00
      25     1     1     2     0     0 -8.226506290E+00  5.716563236E+00 -5.527787186E+02  5.668244567E+02  1.250011939E+02  0.00000E+00  9.000E+00
       5     1     1     2   501     0  1.380436944E-01 -7.732896645E-01 -5.524025259E-01  4.846099619E+00  4.750000000E+00  0.00000E+00  9.000E+00
      -5     1     1     2     0   503  2.252389436E+00 -7.207410457E+00 -1.576136308E+02  1.578658897E+02  4.750000000E+00  0.00000E+00  9.000E+00
      21     1     1     2   503   511  5.836073160E+00  2.264136886E+00 -3.533213005E+02  3.533767500E+02  6.607249480E-06  0.00000E+00  9.000E+00
#rwgt            1           9   5.2423225689530377E-004           4     2261155           0
</event>
<event>
      6   9999  3.45752E-01  9.15573E+00 -1.00000E+00  1.91321E-01
      21    -1     0     0   501   502  0.000000000E+00  0.000000000E+00  1.582468331E+02  1.582468331E+02  0.000000000E+00  0.00000E+00  9.000E+00
      21    -1     0     0   502   512  0.000000000E+00  0.000000000E+00 -9.136466321E+01  9.136466321E+01  0.000000000E+00  0.00000E+00  9.000E+00
      25     1     1     2     0     0  4.014823112E+00 -1.421963391E+01  4.178787760E+01  1.326250360E+02  1.249994267E+02  0.00000E+00  9.000E+00
       5     1     1     2   501     0 -6.145877866E-01  9.941671630E-01  5.660972590E+01  5.682067980E+01  4.750000000E+00  0.00000E+00  9.000E+00
      -5     1     1     2     0   503 -1.155996452E+01  9.072618805E+00  9.506128697E+00  1.813488833E+01  4.750000000E+00  0.00000E+00  9.000E+00
      21     1     1     2   503   512  8.159729198E+00  4.152847938E+00 -4.102156228E+01  4.203089219E+01  4.768371582E-07  0.00000E+00  9.000E+00
#rwgt            1           9   3.4297853803907635E-003           4     2264098           0
</event>
<event>
      6   9999 -3.45752E-01  4.87448E+00 -1.00000E+00  2.31321E-01
      21    -1     0     0   511   502  0.000000000E+00  0.000000000E+00  4.398151762E+00  4.398151762E+00  0.000000000E+00  0.00000E+00  9.000E+00
      21    -1     0     0   502   503  0.000000000E+00  0.000000000E+00 -4.687761758E+03  4.687761758E+03  0.000000000E+00  0.00000E+00  9.000E+00
      25     1     1     2     0     0  1.622809981E+00  2.909025344E+00 -4.391765078E+03  4.393544819E+03  1.249979049E+02  0.00000E+00  9.000E+00
       5     1     1     2   501     0  3.128435839E-02  7.457200719E-02 -5.230690661E+01  5.252220025E+01  4.750000000E+00  0.00000E+00  9.000E+00
      -5     1     1     2     0   503  6.579252934E-01  1.307684145E+00 -2.409065811E+02  2.409578515E+02  4.750000000E+00  0.00000E+00  9.000E+00
      21     1     1     2   511   501 -2.312019633E+00 -4.291281496E+00  1.614959783E+00  5.135039120E+00  8.838285581E-07  0.00000E+00  9.000E+00
#rwgt            1           9  -8.0218343527447411E-006           4     2266930           0
</event>
<event>
      6   9999  3.45752E-01  1.36436E+01 -1.00000E+00  1.74018E-01
      21    -1     0     0   512   502  0.000000000E+00  0.000000000E+00  2.462447935E+02  2.462447935E+02  0.000000000E+00  0.00000E+00  9.000E+00
      21    -1     0     0   502   503  0.000000000E+00  0.000000000E+00 -9.129527782E+02  9.129527782E+02  0.000000000E+00  0.00000E+00  9.000E+00
      25     1     1     2     0     0 -1.590298671E+01 -3.042303984E+01 -5.070522512E+02  5.233601903E+02  1.250017478E+02  0.00000E+00  9.000E+00
       5     1     1     2   501     0  3.966489861E+00 -3.890549750E+00  5.117598017E+00  8.923100842E+00  4.750000000E+00  0.00000E+00  9.000E+00
      -5     1     1     2     0   503  1.809598384E+01  2.213953801E+01 -3.951110454E+02  3.961728468E+02  4.750000000E+00  0.00000E+00  9.000E+00
      21     1     1     2   512   501 -6.159486987E+00  1.217405158E+01  2.303377140E+02  2.307414338E+02  2.697398305E-06  0.00000E+00  9.000E+00
#rwgt            1           9   1.2340829067079482E-004           4     2270503           0
</event>
<event>
      6   9999  3.45752E-01  1.54957E+01 -1.00000E+00  1.69157E-01
      21    -1     0     0   502   503  0.000000000E+00  0.000000000E+00  7.538350367E+00  7.538350367E+00  0.000000000E+00  0.00000E+00  9.000E+00
      21    -1     0     0   511   502  0.000000000E+00  0.000000000E+00 -8.999015188E+02  8.999015188E+02  0.000000000E+00  0.00000E+00  9.000E+00
      25     1     1     2     0     0 -2.375962762E+01 -5.684133786E+00 -6.450125233E+02  6.574680141E+02  1.250048205E+02  0.00000E+00  9.000E+00
       5     1     1     2   501     0  8.038139561E+00  5.648110193E+00 -4.456856244E+01  4.588498768E+01  4.750000000E+00  0.00000E+00  9.000E+00
      -5     1     1     2     0   503  7.081368511E-01  3.872031019E+00 -3.103639105E+01  3.164354833E+01  4.750000000E+00  0.00000E+00  9.000E+00
      21     1     1     2   511   501  1.501335121E+01 -3.836007427E+00 -1.717456917E+02  1.724433190E+02  3.814697266E-06  0.00000E+00  9.000E+00
#rwgt            1           9   8.5672629643963090E-006           4     2272454           0
</event>
<event>
      6   9999  3.45752E-01  3.40562E+00 -1.00000E+00  2.63258E-01
      21    -1     0     0   512   503  0.000000000E+00  0.000000000E+00  1.593891873E+01  1.593891873E+01  0.000000000E+00  0.00000E+00  9.000E+00
      21    -1     0     0   501   502  0.000000000E+00  0.000000000E+00 -7.377249071E+02  7.377249071E+02  0.000000000E+00  0.00000E+00  9.000E+00
      25     1     1     2     0     0 -2.118180563E+01  8.018460844E+00 -4.671730777E+02  4.841239189E+02  1.249492686E+02  0.00000E+00  9.000E+00
       5     1     1     2   501     0  2.149367023E+01 -1.484486861E+01 -2.288442626E+02  2.303792678E+02  4.750000000E+00  0.00000E+00  9.000E+00
      -5     1     1     2     0   503  1.777757760E+00  4.137220963E+00 -3.167424689E+01  3.234342956E+01  4.750000000E+00  0.00000E+00  9.000E+00
      21     1     1     2   512   502 -2.089622365E+00  2.689186805E+00  5.905598904E+00  6.817209525E+00  8.429369702E-08  0.00000E+00  9.000E+00
#rwgt            1           9   1.4949664760383613E-002           4     2274095           0
</event>
<event>
      6   9999  3.45752E-01  6.22268E+01 -1.00000E+00  1.29893E-01
      21    -1     0     0   511   503  0.000000000E+00  0.000000000E+00  1.322950935E+01  1.322950935E+01  0.000000000E+00  0.00000E+00  9.000E+00
      21    -1     0     0   501   502  0.000000000E+00  0.000000000E+00 -2.417221765E+03  2.417221765E+03  0.000000000E+00  0.00000E+00  9.000E+00
      25     1     1     2     0     0 -4.361946867E+01  8.045769108E+01 -1.085487900E+03  1.096488267E+03  1.250057590E+02  0.00000E+00  9.000E+00
       5     1     1     2   501     0  2.134250163E+01 -1.326244031E+01 -1.005803498E+03  1.006128538E+03  4.750000000E+00  0.00000E+00  9.000E+00
      -5     1     1     2     0   503 -2.288967987E+01 -2.439161405E+01 -1.470541297E+02  1.508852804E+02  4.750000000E+00  0.00000E+00  9.000E+00
      21     1     1     2   511   502  4.516664692E+01 -4.280363673E+01 -1.656467276E+02  1.769491896E+02  3.303624740E-06  0.00000E+00  9.000E+00
#rwgt            1           9   143.81608704356051                4     2279400           0
</event>
<event>
      6   9999  3.45752E-01  5.29920E+00 -1.00000E+00  2.21858E-01
      21    -1     0     0   512   502  0.000000000E+00  0.000000000E+00  3.640425525E+01  3.640425525E+01  0.000000000E+00  0.00000E+00  9.000E+00
      21    -1     0     0   502   503  0.000000000E+00  0.000000000E+00 -1.214708821E+03  1.214708821E+03  0.000000000E+00  0.00000E+00  9.000E+00
      25     1     1     2     0     0  5.472374465E+01  1.003852970E+02 -6.166443472E+02  6.394891681E+02  1.249969960E+02  0.00000E+00  9.000E+00
       5     1     1     2   501     0 -3.360834033E+00 -5.025282663E-01  1.756961562E+01  1.851490300E+01  4.750000000E+00  0.00000E+00  9.000E+00
      -5     1     1     2     0   503 -5.027736610E+01 -1.050695904E+02 -5.737981420E+02  5.855205399E+02  4.750000000E+00  0.00000E+00  9.000E+00
      21     1     1     2   512   501 -1.085544512E+00  5.186821646E+00 -5.431691983E+00  7.588465160E+00  1.576990671E-07  0.00000E+00  9.000E+00
#rwgt            1           9   1.8187435852618054E-003           4     2280011           0
</event>
<event>
      6   9999  3.45752E-01  1.35971E+01 -1.00000E+00  1.74152E-01
      21    -1     0     0   501   502  0.000000000E+00  0.000000000E+00  2.718157909E+01  2.718157909E+01  0.000000000E+00  0.00000E+00  9.000E+00
       2    -1     0     0   502     0  0.000000000E+00  0.000000000E+00 -1.384537590E+03  1.384537590E+03  0.000000000E+00  0.00000E+00  9.000E+00
      25     1     1     2     0     0  5.919449032E+00  1.184555096E+00 -9.778834735E+02  9.858591060E+02  1.250025837E+02  0.00000E+00  9.000E+00
       5     1     1     2   501     0  3.570229944E-01 -8.476804457E-01  2.237597562E+01  2.289307346E+01  4.750000000E+00  0.00000E+00  9.000E+00
      -5     1     1     2     0   503  4.540731703E-01 -1.215126049E+01 -1.051801103E+02  1.059871569E+02  4.750000000E+00  0.00000E+00  9.000E+00
       2     1     1     2   503     0 -6.730545196E+00  1.181438584E+01 -2.966684031E+02  2.969798332E+02  5.394796609E-06  0.00000E+00  9.000E+00
#rwgt            1           9   4.4327155389040231E-002           4     2285843           0
</event>
<event>
      6   9999 -3.45752E-01  1.57826E+02 -1.00000E+00  1.12575E-01
      21    -1     0     0   501   511  0.000000000E+00  0.000000000E+00  9.400652756E+01  9.400652756E+01  0.000000000E+00  0.00000E+00  9.000E+00
      21    -1     0     0   502   503  0.000000000E+00  0.000000000E+00 -1.713273871E+03  1.713273871E+03  0.000000000E+00  0.00000E+00  9.000E+00
      25     1     1     2     0     0 -1.459756423E+02 -1.500136295E+02 -6.951844975E+02  7.366952324E+02  1.250016109E+02  0.00000E+00  9.000E+00
       5     1     1     2   501     0  1.573079097E+02  1.009437140E+02 -2.191020829E+02  2.880341943E+02  4.750000000E+00  0.00000E+00  9.000E+00
      -5     1     1     2     0   503 -1.464755322E+02 -3.244811727E+01 -5.103815308E+02  5.319960820E+02  4.750000000E+00  0.00000E+00  9.000E+00
      21     1     1     2   502   511  1.351432647E+02  8.151803276E+01 -1.945992327E+02  2.505548902E+02  0.000000000E+00  0.00000E+00  9.000E+00
#rwgt            1           9  -6.7308653628086795E-004           4     2288409           0
</event>
<event>
      6   9999  3.45752E-01  5.88481E+00 -1.00000E+00  2.15237E-01
      21    -1     0     0   512   502  0.000000000E+00  0.000000000E+00  3.707452920E+01  3.707452920E+01  0.000000000E+00  0.00000E+00  9.000E+00
      21    -1     0     0   502   503  0.000000000E+00  0.000000000E+00 -1.175750037E+03  1.175750037E+03  0.000000000E+00  0.00000E+00  9.000E+00
      25     1     1     2     0     0 -5.499732400E+00  2.532696332E+00 -1.131029223E+03  1.137931165E+03  1.249942882E+02  0.00000E+00  9.000E+00
       5     1     1     2   501     0  4.557623248E+00 -1.236282197E+00  3.196792201E+01  3.266207068E+01  4.750000000E+00  0.00000E+00  9.000E+00
      -5     1     1     2     0   503 -1.297119941E+00 -6.738547900E+00 -2.790795401E+01  2.912914253E+01  4.750000000E+00  0.00000E+00  9.000E+00
      21     1     1     2   512   501  2.239229093E+00  5.442133764E+00 -1.170625260E+01  1.310218748E+01  0.000000000E+00  0.00000E+00  9.000E+00
#rwgt            1           9   2.4124808775439787E-003           4     2288837           0
</event>
<event>
      6   9999  3.45752E-01  2.08877E+01 -1.00000E+00  1.58784E-01
      21    -1     0     0   502   503  0.000000000E+00  0.000000000E+00  3.058821071E+03  3.058821071E+03  0.000000000E+00  0.00000E+00  9.000E+00
      21    -1     0     0   511   502  0.000000000E+00  0.000000000E+00 -6.561377102E+00  6.561377102E+00  0.000000000E+00  0.00000E+00  9.000E+00
      25     1     1     2     0     0  3.144190212E+01 -1.966303295E+00  1.554368068E+03  1.559704665E+03  1.250043722E+02  0.00000E+00  9.000E+00
       5     1     1     2   501     0 -1.466930915E-01  3.011622820E+00  8.932578783E+00  1.055674451E+01  4.750000000E+00  0.00000E+00  9.000E+00
      -5     1     1     2     0   503 -3.800137006E+01 -2.082721237E+01  1.452105584E+03  1.452759810E+03  4.750000000E+00  0.00000E+00  9.000E+00
      21     1     1     2   511   501  6.706161040E+00  1.978189284E+01  3.685346329E+01  4.236122799E+01  1.784161275E-06  0.00000E+00  9.000E+00
#rwgt            1           9   22.934371482539976                4     2293991           0
</event>
<event>
      6   9999  3.45752E-01  1.16912E+01 -1.00000E+00  1.80318E-01
      21    -1     0     0   512   503  0.000000000E+00  0.000000000E+00  1.427340252E+00  1.427340252E+00  0.000000000E+00  0.00000E+00  9.000E+00
      21    -1     0     0   501   502  0.000000000E+00  0.000000000E+00 -4.861388847E+03  4.861388847E+03  0.000000000E+00  0.00000E+00  9.000E+00
      25     1     1     2     0     0 -7.705703933E+00 -1.512958718E+00 -3.965096288E+03  3.967074011E+03  1.250038775E+02  0.00000E+00  9.000E+00
       5     1     1     2   501     0  1.384631116E+01  5.942442507E+00 -5.178273801E+02  5.180683266E+02  4.750000000E+00  0.00000E+00  9.000E+00
      -5     1     1     2     0   503  5.136709450E+00 -1.346320361E+00 -2.493862141E+02  2.494879649E+02  4.750000000E+00  0.00000E+00  9.000E+00
      21     1     1     2   512   502 -1.127731668E+01 -3.083163428E+00 -1.276516252E+02  1.281858853E+02  2.336015456E-06  0.00000E+00  9.000E+00
#rwgt            1           9   5.7324343417464695E-004           4     2295171           0
</event>
<event>
      6   9999  3.45752E-01  2.45417E+01 -1.00000E+00  1.53710E-01
      21    -1     0     0   511   502  0.000000000E+00  0.000000000E+00  2.398140011E+01  2.398140011E+01  0.000000000E+00  0.00000E+00  9.000E+00
       2    -1     0     0   501     0  0.000000000E+00  0.000000000E+00 -1.493382228E+03  1.493382228E+03  0.000000000E+00  0.00000E+00  9.000E+00
      25     1     1     2     0     0 -2.680166317E+01  1.388456861E+02 -6.513854557E+02  6.781729043E+02  1.249760880E+02  0.00000E+00  9.000E+00
       5     1     1     2   501     0  1.449568188E+01 -1.178175273E+01 -6.461154331E+01  6.742513270E+01  4.750000000E+00  0.00000E+00  9.000E+00
      -5     1     1     2     0   502  1.858144297E+01 -1.033380949E+02 -3.033247874E+02  3.210179450E+02  4.750000000E+00  0.00000E+00  9.000E+00
       2     1     1     2   511     0 -6.275461685E+00 -2.372583847E+01 -4.500790412E+02  4.507476457E+02  5.394796609E-06  0.00000E+00  9.000E+00
#rwgt            1           3   7.2765489299105003E-005           4     2296723           0
</event>
<event>
      6   9999  3.45752E-01  7.88582E+00 -1.00000E+00  1.98757E-01
      21    -1     0     0   501   502  0.000000000E+00  0.000000000E+00  1.475474652E+01  1.475474652E+01  0.000000000E+00  0.00000E+00  9.000E+00
       2    -1     0     0   502     0  0.000000000E+00  0.000000000E+00 -2.241546774E+03  2.241546774E+03  0.000000000E+00  0.00000E+00  9.000E+00
      25     1     1     2     0     0  7.061702860E+00 -3.635273016E+01 -7.586371848E+02  7.697571738E+02  1.249973596E+02  0.00000E+00  9.000E+00
       5     1     1     2   501     0  6.586365526E-01  1.779848386E+00  5.568605340E+00  7.561317862E+00  4.750000000E+00  0.00000E+00  9.000E+00
      -5     1     1     2     0   503 -1.560236221E+01  3.432806076E+01 -1.353034711E+02  1.405398209E+02  4.750000000E+00  0.00000E+00  9.000E+00
       2     1     1     2   503     0  7.882022802E+00  2.448210108E-01 -1.338419977E+03  1.338443208E+03  1.525878906E-05  0.00000E+00  9.000E+00
#rwgt            1           9   4.9708766523663575E-004           4     2300014           0
</event>
<event>
      6   9999  3.45752E-01  2.18907E+00 -1.00000E+00  3.18413E-01
      21    -1     0     0   501   502  0.000000000E+00  0.000000000E+00  2.636837415E+01  2.636837415E+01  0.000000000E+00  0.00000E+00  9.000E+00
      21    -1     0     0   511   503  0.000000000E+00  0.000000000E+00 -7.544337616E+02  7.544337616E+02  0.000000000E+00  0.00000E+00  9.000E+00
      25     1     1     2     0     0 -1.095688135E+01  1.691574270E+01 -3.109280109E+02  3.357227658E+02  1.250094072E+02  0.00000E+00  9.000E+00
       5     1     1     2   501     0 -2.158413099E+00 -2.791928263E+00  1.268470530E+01  1.399706609E+01  4.750000000E+00  0.00000E+00  9.000E+00
      -5     1     1     2     0   503  1.260034006E+01 -1.625145210E+01 -1.774471771E+02  1.786979055E+02  4.750000000E+00  0.00000E+00  9.000E+00
      21     1     1     2   511   502  5.149543838E-01  2.127637659E+00 -2.523749047E+02  2.523843984E+02  2.697398305E-06  0.00000E+00  9.000E+00
#rwgt            1           9   4.8845165592297457E-002           4     2303947           0
</event>
<event>
      6   9999  3.45752E-01  6.65259E+00 -1.00000E+00  2.07997E-01
      21    -1     0     0   501   502  0.000000000E+00  0.000000000E+00  5.877103392E+00  5.877103392E+00  0.000000000E+00  0.00000E+00  9.000E+00
      21    -1     0     0   512   503  0.000000000E+00  0.000000000E+00 -2.003458610E+03  2.003458610E+03  0.000000000E+00  0.00000E+00  9.000E+00
      25     1     1     2     0     0  1.575814149E+00  4.918360217E+00 -1.756999959E+03  1.761448784E+03  1.250051546E+02  0.00000E+00  9.000E+00
       5     1     1     2   501     0 -9.240340132E-01  1.311301669E-01  1.763677512E+00  5.152095918E+00  4.750000000E+00  0.00000E+00  9.000E+00
      -5     1     1     2     0   503 -6.652773530E-01  1.603089485E+00 -4.603978270E+01  4.631669873E+01  4.750000000E+00  0.00000E+00  9.000E+00
      21     1     1     2   512   502  1.349721702E-02 -6.652579868E+00 -1.963054422E+02  1.964181347E+02  4.672030912E-06  0.00000E+00  9.000E+00
#rwgt            1           9   1.4110954019654735E-004           4     2312593           0
</event>
<event>
      6   9999  3.45752E-01  6.71171E+00 -1.00000E+00  2.07494E-01
      21    -1     0     0   511   502  0.000000000E+00  0.000000000E+00  8.329464793E+02  8.329464793E+02  0.000000000E+00  0.00000E+00  9.000E+00
      21    -1     0     0   502   503  0.000000000E+00  0.000000000E+00 -1.217152707E+02  1.217152707E+02  0.000000000E+00  0.00000E+00  9.000E+00
      25     1     1     2     0     0  3.158208871E+00  9.223382411E+00 -8.472382435E+01  1.513225963E+02  1.250014266E+02  0.00000E+00  9.000E+00
       5     1     1     2   501     0  2.729767323E+00  5.541635478E-01  4.791059743E+01  4.822599478E+01  4.750000000E+00  0.00000E+00  9.000E+00
      -5     1     1     2     0   503  7.348516298E-01 -1.086622288E+01  6.509973157E+00  1.354832303E+01  4.750000000E+00  0.00000E+00  9.000E+00
      21     1     1     2   511   501 -6.622827824E+00  1.088676918E+00  7.415344623E+02  7.415648359E+02  0.000000000E+00  0.00000E+00  9.000E+00
#rwgt            1           9   4.6232790860359996E-003           4     2316182           0
</event>
<event>
      6   9999  3.45752E-01  6.54649E+00 -1.00000E+00  2.08917E-01
      21    -1     0     0   501   502  0.000000000E+00  0.000000000E+00  1.248568966E+01  1.248568966E+01  0.000000000E+00  0.00000E+00  9.000E+00
       2    -1     0     0   502     0  0.000000000E+00  0.000000000E+00 -2.570148537E+03  2.570148537E+03  0.000000000E+00  0.00000E+00  9.000E+00
      25     1     1     2     0     0  5.619614964E+01  1.700982183E+01 -7.633181947E+02  7.757086780E+02  1.249877812E+02  0.00000E+00  9.000E+00
       5     1     1     2   501     0 -1.088016549E+00  1.295495668E-01  4.021927772E+00  6.319728325E+00  4.750000000E+00  0.00000E+00  9.000E+00
      -5     1     1     2     0   503 -5.546769761E+01 -2.367598288E+01 -8.241907933E+02  8.264080371E+02  4.750000000E+00  0.00000E+00  9.000E+00
       2     1     1     2   503     0  3.595645234E-01  6.536611487E+00 -9.741757870E+02  9.741977831E+02  0.000000000E+00  0.00000E+00  9.000E+00
#rwgt            1           9   3.8321903253549553E-004           4     2319782           0
</event>
<event>
      6   9999  3.45752E-01  1.33500E+01 -1.00000E+00  1.74877E-01
      21    -1     0     0   501   502  0.000000000E+00  0.000000000E+00  5.202032521E+01  5.202032521E+01  0.000000000E+00  0.00000E+00  9.000E+00
      21    -1     0     0   502   511  0.000000000E+00  0.000000000E+00 -1.300635197E+03  1.300635197E+03  0.000000000E+00  0.00000E+00  9.000E+00
      25     1     1     2     0     0  2.483315183E+01  1.240292069E+01 -1.207532309E+03  1.214301878E+03  1.249970168E+02  0.00000E+00  9.000E+00
       5     1     1     2   501     0 -6.982171423E+00  4.054561752E+00  4.634466202E+01  4.728192452E+01  4.750000000E+00  0.00000E+00  9.000E+00
      -5     1     1     2     0   503 -6.944567948E+00 -8.758619344E+00 -4.295974529E+01  4.464350627E+01  4.750000000E+00  0.00000E+00  9.000E+00
      21     1     1     2   503   511 -1.090641246E+01 -7.698863099E+00 -4.446747951E+01  4.642821405E+01  4.768371582E-07  0.00000E+00  9.000E+00
#rwgt            1           9   2.3234872897178741E-005           4     2323528           0
</event>
<event>
      6   9999  3.45752E-01  1.76002E+01 -1.00000E+00  1.64566E-01
      21    -1     0     0   501   502  0.000000000E+00  0.000000000E+00  1.025418437E+01  1.025418437E+01  0.000000000E+00  0.00000E+00  9.000E+00
      21    -1     0     0   512   503  0.000000000E+00  0.000000000E+00 -8.928600225E+02  8.928600225E+02  0.000000000E+00  0.00000E+00  9.000E+00
      25     1     1     2     0     0  2.667696983E+01  9.343757147E+00 -5.606540871E+02  5.751147294E+02  1.249999201E+02  0.00000E+00  9.000E+00
       5     1     1     2   501     0 -2.100292695E+01 -2.295309778E+01 -1.035507617E+02  1.082279557E+02  4.750000000E+00  0.00000E+00  9.000E+00
      -5     1     1     2     0   503  4.485377696E+00 -7.626061088E-01 -4.473388786E+01  4.521485823E+01  4.750000000E+00  0.00000E+00  9.000E+00
      21     1     1     2   512   502 -1.015942057E+01  1.437194674E+01 -1.736671014E+02  1.745566636E+02  2.697398305E-06  0.00000E+00  9.000E+00
#rwgt            1           9  0.69334298412233875                4     2326990           0
</event>
<event>
      6   9999  3.45752E-01  3.77075E+01 -1.00000E+00  1.41689E-01
      21    -1     0     0   501   502  0.000000000E+00  0.000000000E+00  7.745492700E+01  7.745492700E+01  0.000000000E+00  0.00000E+00  9.000E+00
      21    -1     0     0   502   511  0.000000000E+00  0.000000000E+00 -2.014649066E+03  2.014649066E+03  0.000000000E+00  0.00000E+00  9.000E+00
      25     1     1     2     0     0  9.458142267E+01  8.043365301E+01 -6.350084957E+02  6.589956723E+02  1.249971540E+02  0.00000E+00  9.000E+00
       5     1     1     2   501     0 -5.001678027E-01 -2.434135227E+00  6.137192244E+01  6.160560483E+01  4.750000000E+00  0.00000E+00  9.000E+00
      -5     1     1     2     0   503 -5.917077899E+01 -9.225136955E+01 -1.019752798E+03  1.025636304E+03  4.750000000E+00  0.00000E+00  9.000E+00
      21     1     1     2   503   511 -3.491047588E+01  1.425185176E+01 -3.438047685E+02  3.458664127E+02  6.607249480E-06  0.00000E+00  9.000E+00
#rwgt            1           9   2.4673552984632542E-003           4     2328418           0
</event>
<event>
      6   9999  3.45752E-01  4.72078E+01 -1.00000E+00  1.36137E-01
      21    -1     0     0   501   502  0.000000000E+00  0.000000000E+00  1.788948345E+01  1.788948345E+01  0.000000000E+00  0.00000E+00  9.000E+00
       2    -1     0     0   502     0  0.000000000E+00  0.000000000E+00 -2.034345759E+03  2.034345759E+03  0.000000000E+00  0.00000E+00  9.000E+00
      25     1     1     2     0     0  2.571786337E+01 -2.497965980E+01 -9.157681672E+02  9.249542173E+02  1.249943046E+02  0.00000E+00  9.000E+00
       5     1     1     2   501     0  5.692249173E+00 -8.812024533E-02 -2.023583514E-01  7.417069147E+00  4.750000000E+00  0.00000E+00  9.000E+00
      -5     1     1     2     0   503  1.562958201E+01  2.904862433E+01 -2.109627037E+01  3.944263598E+01  4.750000000E+00  0.00000E+00  9.000E+00
       2     1     1     2   503     0 -4.703969455E+01 -3.980844285E+00 -1.079389480E+03  1.080421320E+03  1.525878906E-05  0.00000E+00  9.000E+00
#rwgt            1           9   3.7861253559468450E-004           4     2330845           0
</event>
<event>
      6   9999  3.45752E-01  3.44878E+00 -1.00000E+00  2.61979E-01
      21    -1     0     0   501   502  0.000000000E+00  0.000000000E+00  1.064557505E+02  1.064557505E+02  0.000000000E+00  0.00000E+00  9.000E+00
      21    -1     0     0   502   511  0.000000000E+00  0.000000000E+00 -4.567189814E+02  4.567189814E+02  0.000000000E+00  0.00000E+00  9.000E+00
      25     1     1     2     0     0  4.820533169E+01 -1.077138954E-02 -9.214290132E+01  1.626005771E+02  1.249995172E+02  0.00000E+00  9.000E+00
       5     1     1     2   501     0  1.368035964E-01  3.288580983E+00  6.927874078E+01  6.951934914E+01  4.750000000E+00  0.00000E+00  9.000E+00
      -5     1     1     2     0   503 -4.501795709E+01 -4.196478022E+00 -2.967252533E+02  3.001877169E+02  4.750000000E+00  0.00000E+00  9.000E+00
      21     1     1     2   503   511 -3.324178197E+00  9.186684288E-01 -3.067381710E+01  3.086708875E+01  4.768371582E-07  0.00000E+00  9.000E+00
#rwgt            1           9   2.7624510305450732E-002           4     2331899           0
</event>
<event>
      6   9999  3.45752E-01  4.03280E+00 -1.00000E+00  2.47118E-01
      21    -1     0     0   501   512  0.000000000E+00  0.000000000E+00  1.253886376E+01  1.253886376E+01  0.000000000E+00  0.00000E+00  9.000E+00
      21    -1     0     0   502   503  0.000000000E+00  0.000000000E+00 -7.045624286E+02  7.045624286E+02  0.000000000E+00  0.00000E+00  9.000E+00
      25     1     1     2     0     0 -7.715269695E-01 -1.383087946E+00 -6.542861941E+02  6.661217254E+02  1.250008841E+02  0.00000E+00  9.000E+00
       5     1     1     2   501     0 -2.327834694E-01  1.728788542E+00  8.270726127E-01  5.127323578E+00  4.750000000E+00  0.00000E+00  9.000E+00
      -5     1     1     2     0   503  3.332067005E+00  2.947482591E+00 -4.074924378E+01  4.126564785E+01  4.750000000E+00  0.00000E+00  9.000E+00
      21     1     1     2   502   512 -2.327756566E+00 -3.293183187E+00  2.184800407E+00  4.586595573E+00  2.128311523E-07  0.00000E+00  9.000E+00
#rwgt            1           9   1.1533690269937836E-004           4     2339755           0
</event>
<event>
      6   9999  3.45752E-01  1.47595E+01 -1.00000E+00  1.70982E-01
      21    -1     0     0   511   502  0.000000000E+00  0.000000000E+00  1.180098567E+01  1.180098567E+01  0.000000000E+00  0.00000E+00  9.000E+00
      21    -1     0     0   502   503  0.000000000E+00  0.000000000E+00 -6.885170658E+02  6.885170658E+02  0.000000000E+00  0.00000E+00  9.000E+00
      25     1     1     2     0     0 -6.882033418E+00 -8.474678689E+00 -5.838621778E+02  5.972162927E+02  1.251122494E+02  0.00000E+00  9.000E+00
       5     1     1     2   501     0 -5.948976163E-01  1.413803175E-02 -1.030257437E+01  1.136044197E+01  4.750000000E+00  0.00000E+00  9.000E+00
      -5     1     1     2     0   503 -6.946520667E+00  5.328971720E+00 -7.403298079E+01  7.470004574E+01  4.750000000E+00  0.00000E+00  9.000E+00
      21     1     1     2   511   501  1.442345170E+01  3.131568937E+00 -8.518347149E+00  1.704127111E+01  7.907449699E-07  0.00000E+00  9.000E+00
#rwgt            1           9   6.8178587056341960E-004           4     2344398           0
</event>
<event>
      6   9999  3.45752E-01  5.46880E+00 -1.00000E+00  2.19824E-01
      21    -1     0     0   501   502  0.000000000E+00  0.000000000E+00  2.646434097E+01  2.646434097E+01  0.000000000E+00  0.00000E+00  9.000E+00
      21    -1     0     0   512   503  0.000000000E+00  0.000000000E+00 -1.180713127E+03  1.180713127E+03  0.000000000E+00  0.00000E+00  9.000E+00
      25     1     1     2     0     0 -6.257599012E+00 -2.833248851E+00 -6.364681693E+02  6.486638172E+02  1.250033295E+02  0.00000E+00  9.000E+00
       5     1     1     2   501     0  2.119027550E+00 -9.221692373E-01  1.995661040E+01  2.064387252E+01  4.750000000E+00  0.00000E+00  9.000E+00
      -5     1     1     2     0   503 -1.327166789E+00  3.572336788E+00 -3.497772438E+02  3.498302527E+02  4.750000000E+00  0.00000E+00  9.000E+00
      21     1     1     2   512   502  5.465738251E+00  1.830812997E-01 -1.879599834E+02  1.880395256E+02  0.000000000E+00  0.00000E+00  9.000E+00
#rwgt            1           9   8.9973198548982287E-003           4     2345959           0
</event>
<event>
      6   9999  3.45752E-01  6.82484E+00 -1.00000E+00  2.06551E-01
      21    -1     0     0   501   502  0.000000000E+00  0.000000000E+00  1.709291124E+01  1.709291124E+01  0.000000000E+00  0.00000E+00  9.000E+00
      21    -1     0     0   511   503  0.000000000E+00  0.000000000E+00 -1.714008698E+03  1.714008698E+03  0.000000000E+00  0.00000E+00  9.000E+00
      25     1     1     2     0     0  8.234805630E+00 -3.015718708E+01 -8.593175974E+02  8.689243845E+02  1.250023393E+02  0.00000E+00  9.000E+00
       5     1     1     2   501     0  7.035111215E-01  1.769758912E+00  8.461978871E+00  9.889113252E+00  4.750000000E+00  0.00000E+00  9.000E+00
      -5     1     1     2     0   503 -1.527135920E+01  2.584360189E+01 -7.141595580E+01  7.761383519E+01  4.750000000E+00  0.00000E+00  9.000E+00
      21     1     1     2   511   502  6.333042445E+00  2.543826276E+00 -7.746442120E+02  7.746742759E+02  1.078959322E-05  0.00000E+00  9.000E+00
#rwgt            1           9   5.3476594889442734E-005           4     2350197           0
</event>
<event>
      6   9999 -3.45752E-01  1.33089E+01 -1.00000E+00  1.75000E-01
      21    -1     0     0   501   502  0.000000000E+00  0.000000000E+00  4.287587913E+01  4.287587913E+01  0.000000000E+00  0.00000E+00  9.000E+00
      21    -1     0     0   512   503  0.000000000E+00  0.000000000E+00 -2.996928314E+02  2.996928314E+02  0.000000000E+00  0.00000E+00  9.000E+00
      25     1     1     2     0     0  2.349268561E+01  1.691604635E+01 -2.420166965E+02  2.739327446E+02  1.250160322E+02  0.00000E+00  9.000E+00
       5     1     1     2   501     0  2.880103559E+00 -2.547764883E+00  1.348730038E+01  1.480729124E+01  4.750000000E+00  0.00000E+00  9.000E+00
      -5     1     1     2     0   503 -1.400571848E+01 -1.928596860E+01 -2.026960403E+00  2.438810782E+01  4.750000000E+00  0.00000E+00  9.000E+00
      21     1     1     2   512   502 -1.236707070E+01  4.917687126E+00 -2.626059575E+01  2.944056679E+01  4.768371582E-07  0.00000E+00  9.000E+00
#rwgt            1           9  -7.9680741019769356E-006           4     2354126           0
</event>
<event>
      6   9999  3.45752E-01  3.10613E+01 -1.00000E+00  1.46868E-01
      21    -1     0     0   501   502  0.000000000E+00  0.000000000E+00  3.306517001E+01  3.306517001E+01  0.000000000E+00  0.00000E+00  9.000E+00
      21    -1     0     0   511   503  0.000000000E+00  0.000000000E+00 -1.724583060E+03  1.724583060E+03  0.000000000E+00  0.00000E+00  9.000E+00
      25     1     1     2     0     0 -3.629143532E+01  2.768894631E+01 -1.506439377E+03  1.512305999E+03  1.250043650E+02  0.00000E+00  9.000E+00
       5     1     1     2   501     0  1.125332084E+01  1.586212160E+01  2.142946310E+01  2.932624286E+01  4.750000000E+00  0.00000E+00  9.000E+00
      -5     1     1     2     0   503  2.882186801E+01 -1.272108216E+01 -9.154562372E+01  9.693136607E+01  4.750000000E+00  0.00000E+00  9.000E+00
      21     1     1     2   511   502 -3.783753520E+00 -3.082998575E+01 -1.149623521E+02  1.190846221E+02  1.348699152E-06  0.00000E+00  9.000E+00
#rwgt            1           9   9.1290805619648129E-005           4     2356623           0
</event>
<event>
      6   9999  3.45752E-01  8.40476E+00 -1.00000E+00  1.95511E-01
      21    -1     0     0   501   502  0.000000000E+00  0.000000000E+00  7.173140231E+00  7.173140231E+00  0.000000000E+00  0.00000E+00  9.000E+00
      21    -1     0     0   512   503  0.000000000E+00  0.000000000E+00 -1.602033869E+03  1.602033869E+03  0.000000000E+00  0.00000E+00  9.000E+00
      25     1     1     2     0     0  2.530609835E+00  9.757811561E+00 -6.781594387E+02  6.896570140E+02  1.249998151E+02  0.00000E+00  9.000E+00
       5     1     1     2   501     0 -1.437848097E+00  3.263221164E-01 -4.937525539E+00  7.008248834E+00  4.750000000E+00  0.00000E+00  9.000E+00
      -5     1     1     2     0   503 -4.350168399E-01 -1.705155085E+00 -1.700311976E+01  1.774162831E+01  4.750000000E+00  0.00000E+00  9.000E+00
      21     1     1     2   512   502 -6.577448979E-01 -8.378978592E+00 -8.947606453E+02  8.948001186E+02  1.078959322E-05  0.00000E+00  9.000E+00
#rwgt            1           9   1.4725543949684478E-002           4     2358311           0
</event>
<event>
      6   9999  3.45752E-01  4.77073E+00 -1.00000E+00  2.33007E-01
      21    -1     0     0   501   511  0.000000000E+00  0.000000000E+00  1.367984681E+02  1.367984681E+02  0.000000000E+00  0.00000E+00  9.000E+00
      21    -1     0     0   502   503  0.000000000E+00  0.000000000E+00 -5.200028309E+03  5.200028309E+03  0.000000000E+00  0.00000E+00  9.000E+00
      25     1     1     2     0     0 -2.854751014E+01  2.923404835E+01 -4.351858989E+03  4.353841814E+03  1.248691099E+02  0.00000E+00  9.000E+00
       5     1     1     2   501     0 -3.675884706E-01 -8.808122459E-01 -2.050455659E+01  2.106917873E+01  4.750000000E+00  0.00000E+00  9.000E+00
      -5     1     1     2     0   503  2.414471496E+01 -2.829592686E+01 -8.259235005E+02  8.267743452E+02  4.750000000E+00  0.00000E+00  9.000E+00
      21     1     1     2   502   511  4.770383648E+00 -5.730924130E-02  1.350572051E+02  1.351414389E+02  1.250732140E-05  0.00000E+00  9.000E+00
#rwgt            1           9   3.4448367792249382E-003           4     2360555           0
</event>
<event>
      6   9999  3.45752E-01  2.24919E+00 -1.00000E+00  3.14329E-01
       2    -1     0     0   501     0  0.000000000E+00  0.000000000E+00  1.577930588E+03  1.577930588E+03  0.000000000E+00  0.00000E+00  9.000E+00
      21    -1     0     0   502   503  0.000000000E+00  0.000000000E+00 -8.926069887E+01  8.926069887E+01  0.000000000E+00  0.00000E+00  9.000E+00
      25     1     1     2     0     0 -5.427705658E+00  7.792095814E+00 -2.401082292E+01  1.276375094E+02  1.249985498E+02  0.00000E+00  9.000E+00
       5     1     1     2   501     0 -3.812988792E-01 -5.727119922E+00  2.183381522E+02  2.184652295E+02  4.750000000E+00  0.00000E+00  9.000E+00
      -5     1     1     2     0   503  4.933000558E+00  6.607004170E-03 -1.249525119E+01  1.424880137E+01  4.750000000E+00  0.00000E+00  9.000E+00
       2     1     1     2   502     0  8.760039792E-01 -2.071582896E+00  1.306837811E+03  1.306839746E+03  1.525878906E-05  0.00000E+00  9.000E+00
#rwgt            1           9  0.22585767475554597                4     2364238           0
</event>
<event>
      6   9999  3.45752E-01  7.82236E+00 -1.00000E+00  1.99177E-01
      21    -1     0     0   501   502  0.000000000E+00  0.000000000E+00  4.309526440E+01  4.309526440E+01  0.000000000E+00  0.00000E+00  9.000E+00
      21    -1     0     0   511   503  0.000000000E+00  0.000000000E+00 -5.415547352E+02  5.415547352E+02  0.000000000E+00  0.00000E+00  9.000E+00
      25     1     1     2     0     0  5.816773498E+01  1.232681703E+01 -1.466584083E+02  2.016667008E+02  1.250013348E+02  0.00000E+00  9.000E+00
       5     1     1     2   501     0 -1.126362344E+00  5.666808377E-01  1.133371873E+01  1.235335985E+01  4.750000000E+00  0.00000E+00  9.000E+00
      -5     1     1     2     0   503 -5.876637461E+01 -2.052328868E+01 -3.483864569E+02  3.539355563E+02  4.750000000E+00  0.00000E+00  9.000E+00
      21     1     1     2   511   502  1.725001970E+00  7.629790818E+00 -1.474832436E+01  1.669438262E+01  3.371747881E-07  0.00000E+00  9.000E+00
#rwgt            1           9   17.863986467165560                4     2373238           0
</event>
<event>
      6   9999  3.45752E-01  5.17384E+00 -1.00000E+00  2.23431E-01
      21    -1     0     0   501   502  0.000000000E+00  0.000000000E+00  2.624701814E+02  2.624701814E+02  0.000000000E+00  0.00000E+00  9.000E+00
      21    -1     0     0   512   503  0.000000000E+00  0.000000000E+00 -4.243052810E+01  4.243052810E+01  0.000000000E+00  0.00000E+00  9.000E+00
      25     1     1     2     0     0 -3.244979917E+00 -2.657134052E+00  2.163472193E+02  2.498973679E+02  1.249999397E+02  0.00000E+00  9.000E+00
       5     1     1     2   501     0 -1.801965793E-01  2.270833408E-02  1.849271343E+01  1.909387170E+01  4.750000000E+00  0.00000E+00  9.000E+00
      -5     1     1     2     0   503 -1.678738257E+00  1.786705022E+00  9.588570835E+00  1.097787173E+01  4.750000000E+00  0.00000E+00  9.000E+00
      21     1     1     2   512   502  5.103914753E+00  8.477206955E-01 -2.438885022E+01  2.493159825E+01  8.259061849E-07  0.00000E+00  9.000E+00
#rwgt            1           9   9.0665774143360142E-004           4     2376971           0
</event>
<event>
      6   9999  3.45752E-01  1.14269E+01 -1.00000E+00  1.81291E-01
      21    -1     0     0   501   502  0.000000000E+00  0.000000000E+00  7.117042267E+01  7.117042267E+01  0.000000000E+00  0.00000E+00  9.000E+00
      21    -1     0     0   511   503  0.000000000E+00  0.000000000E+00 -1.486651464E+03  1.486651464E+03  0.000000000E+00  0.00000E+00  9.000E+00
      25     1     1     2     0     0  1.788239369E+01  1.197617444E+02 -1.287286052E+03  1.298996747E+03  1.249980610E+02  0.00000E+00  9.000E+00
       5     1     1     2   501     0 -5.713995871E+00 -3.046561301E+00  4.425725580E+01  4.497997861E+01  4.750000000E+00  0.00000E+00  9.000E+00
      -5     1     1     2     0   503 -2.290989334E+00 -1.109695926E+02 -1.357994500E+02  1.754524215E+02  4.750000000E+00  0.00000E+00  9.000E+00
      21     1     1     2   511   502 -9.877408484E+00 -5.745590553E+00 -3.665279572E+01  3.839273946E+01  0.000000000E+00  0.00000E+00  9.000E+00
#rwgt            1           9   8.3119699934116757E-005           4     2381389           0
</event>
<event>
      6   9999  3.45752E-01  1.45027E+01 -1.00000E+00  1.71650E-01
      21    -1     0     0   501   512  0.000000000E+00  0.000000000E+00  7.337795853E+01  7.337795853E+01  0.000000000E+00  0.00000E+00  9.000E+00
      21    -1     0     0   502   503  0.000000000E+00  0.000000000E+00 -1.241375539E+03  1.241375539E+03  0.000000000E+00  0.00000E+00  9.000E+00
      25     1     1     2     0     0 -1.147542806E+01  3.649069553E+01 -5.579745099E+02  5.730832670E+02  1.250024838E+02  0.00000E+00  9.000E+00
       5     1     1     2   501     0  3.346607336E+00  2.673695245E+00  3.152853000E+01  3.217078071E+01  4.750000000E+00  0.00000E+00  9.000E+00
      -5     1     1     2     0   503  2.141214605E+01 -4.498526820E+01 -6.730051403E+02  6.748634200E+02  4.750000000E+00  0.00000E+00  9.000E+00
      21     1     1     2   502   512 -1.328332532E+01  5.820877427E+00  3.145354010E+01  3.463602937E+01  5.840038640E-07  0.00000E+00  9.000E+00
#rwgt            1           9   2.7542952379405749E-002           4     2385340           0
</event>
<event>
      6   9999  3.45752E-01  1.23844E+01 -1.00000E+00  1.77914E-01
      21    -1     0     0   501   511  0.000000000E+00  0.000000000E+00  7.577111049E+01  7.577111049E+01  0.000000000E+00  0.00000E+00  9.000E+00
      21    -1     0     0   502   503  0.000000000E+00  0.000000000E+00 -4.216061373E+03  4.216061373E+03  0.000000000E+00  0.00000E+00  9.000E+00
      25     1     1     2     0     0 -1.075061567E+01 -2.978143533E+01 -4.054341481E+03  4.056391548E+03  1.250001642E+02  0.00000E+00  9.000E+00
       5     1     1     2   501     0  7.271709207E+00  3.476681094E+00  1.540674366E+01  1.802485275E+01  4.750000000E+00  0.00000E+00  9.000E+00
      -5     1     1     2     0   503 -2.743745140E+00  1.559716625E+01 -1.582895430E+02  1.591506885E+02  4.750000000E+00  0.00000E+00  9.000E+00
      21     1     1     2   502   511  6.222651602E+00  1.070758799E+01  5.693401730E+01  5.826539418E+01  3.371747881E-06  0.00000E+00  9.000E+00
#rwgt            1           9   3.0684353593948480E-006           4     2388104           0
</event>
<event>
      6   9999  3.45752E-01  2.67312E+01 -1.00000E+00  1.51154E-01
      21    -1     0     0   512   502  0.000000000E+00  0.000000000E+00  3.516998133E+01  3.516998133E+01  0.000000000E+00  0.00000E+00  9.000E+00
      21    -1     0     0   502   503  0.000000000E+00  0.000000000E+00 -1.070086613E+03  1.070086613E+03  0.000000000E+00  0.00000E+00  9.000E+00
      25     1     1     2     0     0 -2.826159629E+01 -4.025773559E+01 -5.930103632E+02  6.080344721E+02  1.250009012E+02  0.00000E+00  9.000E+00
       5     1     1     2   501     0  1.580554737E+00 -1.025639557E+01  1.352876339E+01  1.769976673E+01  4.750000000E+00  0.00000E+00  9.000E+00
      -5     1     1     2     0   503  1.937046805E+01  2.480201931E+01 -4.513619440E+02  4.524826209E+02  4.750000000E+00  0.00000E+00  9.000E+00
      21     1     1     2   512   501  7.310573496E+00  2.571211186E+01 -4.073087373E+00  2.703973413E+01  7.420718430E-07  0.00000E+00  9.000E+00
#rwgt            1           9   2.1469497699802462E-003           4     2391475           0
</event>
<event>
      6   9999  3.45752E-01  5.78494E+00 -1.00000E+00  2.16290E-01
      21    -1     0     0   501   502  0.000000000E+00  0.000000000E+00  2.912455180E+01  2.912455180E+01  0.000000000E+00  0.00000E+00  9.000E+00
      21    -1     0     0   511   503  0.000000000E+00  0.000000000E+00 -1.075878024E+03  1.075878024E+03  0.000000000E+00  0.00000E+00  9.000E+00
      25     1     1     2     0     0  1.017361406E+01 -7.836318606E-01 -1.001795262E+03  1.009619973E+03  1.250384996E+02  0.00000E+00  9.000E+00
       5     1     1     2   501     0 -1.142416143E+00  4.410768958E+00  2.423032985E+01  2.510839267E+01  4.750000000E+00  0.00000E+00  9.000E+00
      -5     1     1     2     0   503 -3.449589020E+00 -2.106891009E+00 -2.835036235E+01  2.902833442E+01  4.750000000E+00  0.00000E+00  9.000E+00
      21     1     1     2   511   502 -5.581608899E+00 -1.520246088E+00 -4.083817776E+01  4.124587578E+01  4.768371582E-07  0.00000E+00  9.000E+00
#rwgt            1           9   5.2966202888088865E-005           4     2392935           0
</event>
<event>
      6   9999 -3.45752E-01  1.58787E+01 -1.00000E+00  1.68256E-01
      21    -1     0     0   501   512  0.000000000E+00  0.000000000E+00  4.902475275E+00  4.902475275E+00  0.000000000E+00  0.00000E+00  9.000E+00
      21    -1     0     0   502   503  0.000000000E+00  0.000000000E+00 -1.709865678E+03  1.709865678E+03  0.000000000E+00  0.00000E+00  9.000E+00
      25     1     1     2     0     0 -2.017510563E+01 -5.961121294E+00 -1.492716349E+03  1.498089973E+03  1.250155883E+02  0.00000E+00  9.000E+00
       5     1     1     2   501     0 -5.567807505E-01 -2.747565637E+00 -6.008211384E+00  8.155993243E+00  4.750000000E+00  0.00000E+00  9.000E+00
      -5     1     1     2     0   503  1.305084385E+01 -5.188643023E+00 -1.066591092E+02  1.076846071E+02  4.750000000E+00  0.00000E+00  9.000E+00
      21     1     1     2   502   512  7.681042531E+00  1.389732995E+01 -9.957953343E+01  1.008375807E+02  2.336015456E-06  0.00000E+00  9.000E+00
#rwgt            1           9  -2.4458134939036544E-004           4     2397646           0
</event>
<event>
      6   9999  3.45752E-01  1.41890E+01 -1.00000E+00  1.72490E-01
      21    -1     0     0   511   502  0.000000000E+00  0.000000000E+00  9.825762435E+01  9.825762435E+01  0.000000000E+00  0.00000E+00  9.000E+00
      21    -1     0     0   502   503  0.000000000E+00  0.000000000E+00 -1.620691494E+03  1.620691494E+03  0.000000000E+00  0.00000E+00  9.000E+00
      25     1     1     2     0     0 -3.096088817E+00 -1.318613048E+01 -1.470033785E+03  1.475401366E+03  1.250056121E+02  0.00000E+00  9.000E+00
       5     1     1     2   501     0 -5.201387233E+00  2.086799235E+01  8.592574189E+01  8.870356900E+01  4.750000000E+00  0.00000E+00  9.000E+00
      -5     1     1     2     0   503  1.751919648E+01  3.101802357E+00 -1.394033203E+02  1.406143365E+02  4.750000000E+00  0.00000E+00  9.000E+00
      21     1     1     2   511   501 -9.221720428E+00 -1.078366423E+01  1.077493611E+00  1.422984660E+01  2.037703146E-07  0.00000E+00  9.000E+00
#rwgt            1           9   5.8217550961452573E-006           4     2399197           0
</event>
<event>
      6   9999  3.45752E-01  1.94708E+00 -1.00000E+00  3.37458E-01
      21    -1     0     0   501   502  0.000000000E+00  0.000000000E+00  7.662125792E+01  7.662125792E+01  0.000000000E+00  0.00000E+00  9.000E+00
      21    -1     0     0   512   503  0.000000000E+00  0.000000000E+00 -1.056728248E+02  1.056728248E+02  0.000000000E+00  0.00000E+00  9.000E+00
      25     1     1     2     0     0  7.574771918E+00  2.459748605E+00  9.354524867E+00  1.255953063E+02  1.249929850E+02  0.00000E+00  9.000E+00
       5     1     1     2   501     0  1.101364855E-03  1.565169346E-01  3.272764872E+00  5.770440942E+00  4.750000000E+00  0.00000E+00  9.000E+00
      -5     1     1     2     0   503 -6.457468294E+00 -1.022438167E+00  1.055274793E+00  8.149870027E+00  4.750000000E+00  0.00000E+00  9.000E+00
      21     1     1     2   512   502 -1.118404990E+00 -1.593827372E+00 -4.273413146E+01  4.277846546E+01  6.743495762E-07  0.00000E+00  9.000E+00
#rwgt            1           9   7.0196105532167310E-004           4     2403042           0
</event>
<event>
      6   9999  3.45752E-01  1.88856E+01 -1.00000E+00  1.62134E-01
      21    -1     0     0   502   503  0.000000000E+00  0.000000000E+00  1.566543637E+02  1.566543637E+02  0.000000000E+00  0.00000E+00  9.000E+00
      21    -1     0     0   511   502  0.000000000E+00  0.000000000E+00 -1.141769905E+02  1.141769905E+02  0.000000000E+00  0.00000E+00  9.000E+00
      25     1     1     2     0     0  1.215771597E+01 -9.100374143E+00  2.904562192E+01  1.292305450E+02  1.250050348E+02  0.00000E+00  9.000E+00
       5     1     1     2   501     0  2.726905302E-01 -1.191933711E+00  2.734537613E+01  2.778177751E+01  4.750000000E+00  0.00000E+00  9.000E+00
      -5     1     1     2     0   503 -8.140536595E-01 -4.598168553E+00  4.832308901E+01  4.878000891E+01  4.750000000E+00  0.00000E+00  9.000E+00
      21     1     1     2   511   501 -1.161635284E+01  1.489047641E+01 -6.223671383E+01  6.503902282E+01  9.536743164E-07  0.00000E+00  9.000E+00
#rwgt            1           9   4.0029673258972002E-005           4     2410538           0
</event>
<event>
      6   9999  3.45752E-01  7.83776E+00 -1.00000E+00  1.99075E-01
      21    -1     0     0   512   502  0.000000000E+00  0.000000000E+00  2.091898127E+01  2.091898127E+01  0.000000000E+00  0.00000E+00  9.000E+00
      21    -1     0     0   502   503  0.000000000E+00  0.000000000E+00 -9.621572104E+02  9.621572104E+02  0.000000000E+00  0.00000E+00  9.000E+00
      25     1     1     2     0     0 -4.407857482E-01  1.036830234E+01 -9.005613314E+02  9.092542188E+02  1.249993073E+02  0.00000E+00  9.000E+00
       5     1     1     2   501     0 -7.855843277E-01 -2.177324067E+00  1.121957383E+01  1.240158134E+01  4.750000000E+00  0.00000E+00  9.000E+00
      -5     1     1     2     0   503 -2.883359092E+00 -1.517107901E+00 -5.316892257E+01  5.348001686E+01  4.750000000E+00  0.00000E+00  9.000E+00
      21     1     1     2   512   501  4.109729168E+00 -6.673870369E+00  1.272450944E+00  7.940374735E+00  2.706930358E-07  0.00000E+00  9.000E+00
#rwgt            1           9   2.6358497845487119E-004           4     2411933           0
</event>
<event>
      6   9999  3.45752E-01  7.62358E+00 -1.00000E+00  2.00526E-01
      21    -1     0     0   502   503  0.000000000E+00  0.000000000E+00  2.093827254E+01  2.093827254E+01  0.000000000E+00  0.00000E+00  9.000E+00
       2    -1     0     0   501     0  0.000000000E+00  0.000000000E+00 -1.710937342E+03  1.710937342E+03  0.000000000E+00  0.00000E+00  9.000E+00
      25     1     1     2     0     0 -2.175518655E+00  8.068284932E+00 -6.207783772E+02  6.332911859E+02  1.249884093E+02  0.00000E+00  9.000E+00
       5     1     1     2   501     0 -2.471998425E+00 -1.752584576E+00  5.380933801E+00  7.790974103E+00  4.750000000E+00  0.00000E+00  9.000E+00
      -5     1     1     2     0   503 -2.281645655E+00 -9.494642607E+00  4.435143306E+00  1.172975453E+01  4.750000000E+00  0.00000E+00  9.000E+00
       2     1     1     2   502     0  6.929162735E+00  3.178942250E+00 -1.079036770E+03  1.079063700E+03  1.525878906E-05  0.00000E+00  9.000E+00
#rwgt            1           9   2.0763680077361202E-003           4     2415148           0
</event>
<event>
      6   9999  3.45752E-01  6.07848E+00 -1.00000E+00  2.13275E-01
      21    -1     0     0   501   502  0.000000000E+00  0.000000000E+00  8.955141623E+00  8.955141623E+00  0.000000000E+00  0.00000E+00  9.000E+00
      21    -1     0     0   502   511  0.000000000E+00  0.000000000E+00 -8.139443807E+02  8.139443807E+02  0.000000000E+00  0.00000E+00  9.000E+00
      25     1     1     2     0     0  1.236483650E+01  2.883748201E+01 -5.847283626E+02  5.987441204E+02  1.249110651E+02  0.00000E+00  9.000E+00
       5     1     1     2   501     0 -1.239547921E+01 -4.546349299E+00 -5.182389046E+01  5.368980647E+01  4.750000000E+00  0.00000E+00  9.000E+00
      -5     1     1     2     0   503  2.344620955E+00 -1.867033322E+01 -1.085793229E+02  1.103000927E+02  4.750000000E+00  0.00000E+00  9.000E+00
      21     1     1     2   503   511 -2.313978244E+00 -5.620799496E+00 -5.985766315E+01  6.016550274E+01  6.743495762E-07  0.00000E+00  9.000E+00
#rwgt            1           9   3.8648331147852873E-005           4     2418274           0
</event>
<event>
      6   9999  3.45752E-01  2.64748E+01 -1.00000E+00  1.51438E-01
      21    -1     0     0   512   503  0.000000000E+00  0.000000000E+00  1.247405301E+01  1.247405301E+01  0.000000000E+00  0.00000E+00  9.000E+00
      21    -1     0     0   501   502  0.000000000E+00  0.000000000E+00 -1.015234054E+03  1.015234054E+03  0.000000000E+00  0.00000E+00  9.000E+00
      25     1     1     2     0     0  5.597899080E+01 -3.247947006E+01 -6.277676184E+02  6.433552821E+02  1.250010920E+02  0.00000E+00  9.000E+00
       5     1     1     2   501     0  2.587674189E-01  1.793737814E+01 -7.128410687E+01  7.366004947E+01  4.750000000E+00  0.00000E+00  9.000E+00
      -5     1     1     2     0   503 -3.100810953E+01  2.256588641E+01 -1.965253451E+02  2.002885315E+02  4.750000000E+00  0.00000E+00  9.000E+00
      21     1     1     2   512   502 -2.522964869E+01 -8.023794488E+00 -1.071829309E+02  1.104042441E+02  1.907348633E-06  0.00000E+00  9.000E+00
#rwgt            1           9  0.25797238327385841                4     2422065           0
</event>
<event>
      6   9999  3.45752E-01  3.85789E+00 -1.00000E+00  2.51147E-01
      21    -1     0     0   511   502  0.000000000E+00  0.000000000E+00  1.112176037E+01  1.112176037E+01  0.000000000E+00  0.00000E+00  9.000E+00
      21    -1     0     0   502   503  0.000000000E+00  0.000000000E+00 -7.923329936E+02  7.923329936E+02  0.000000000E+00  0.00000E+00  9.000E+00
      25     1     1     2     0     0 -3.657711732E-01 -2.537724411E+00 -7.186535599E+02  7.294493805E+02  1.250075426E+02  0.00000E+00  9.000E+00
       5     1     1     2   501     0 -8.260044043E-01 -4.747254010E-01 -1.950154802E+00  5.222379844E+00  4.750000000E+00  0.00000E+00  9.000E+00
      -5     1     1     2     0   503 -2.483504233E+00  1.839586603E+00 -6.363015721E+01  6.388201060E+01  4.750000000E+00  0.00000E+00  9.000E+00
      21     1     1     2   511   501  3.675279810E+00  1.172863209E+00  3.022638701E+00  4.900983015E+00  4.823927300E-07  0.00000E+00  9.000E+00
#rwgt            1           9   1.8863241833525302E-003           4     2423571           0
</event>
<event>
      6   9999  3.45752E-01  6.47740E+00 -1.00000E+00  2.09529E-01
      21    -1     0     0   501   502  0.000000000E+00  0.000000000E+00  6.343986303E+01  6.343986303E+01  0.000000000E+00  0.00000E+00  9.000E+00
      21    -1     0     0   512   503  0.000000000E+00  0.000000000E+00 -1.714294595E+03  1.714294595E+03  0.000000000E+00  0.00000E+00  9.000E+00
      25     1     1     2     0     0 -6.513387026E+01  3.353698098E+01 -6.724345880E+02  6.878666100E+02  1.250001915E+02  0.00000E+00  9.000E+00
       5     1     1     2   501     0 -4.273452159E+00 -1.583281696E+01  5.294943334E+01  5.563403165E+01  4.750000000E+00  0.00000E+00  9.000E+00
      -5     1     1     2     0   503  6.515201894E+01 -2.258771345E+01 -8.730786998E+02  8.758104641E+02  4.750000000E+00  0.00000E+00  9.000E+00
      21     1     1     2   512   502  4.255303479E+00  4.883549431E+00 -1.582908776E+02  1.584233524E+02  1.907348633E-06  0.00000E+00  9.000E+00
#rwgt            1           9   8.4352361329013044E-006           4     2427400           0
</event>
<event>
      6   9999  3.45752E-01  9.13415E+00 -1.00000E+00  1.91434E-01
      21    -1     0     0   511   503  0.000000000E+00  0.000000000E+00  2.996690720E+01  2.996690720E+01  0.000000000E+00  0.00000E+00  9.000E+00
      21    -1     0     0   501   502  0.000000000E+00  0.000000000E+00 -2.583505056E+03  2.583505056E+03  0.000000000E+00  0.00000E+00  9.000E+00
      25     1     1     2     0     0 -1.058021203E+00 -5.466562319E-01 -2.366208360E+03  2.369506569E+03  1.249718417E+02  0.00000E+00  9.000E+00
       5     1     1     2   501     0  1.979703482E-01 -5.134969554E-01 -4.154630884E+01  4.182058284E+01  4.750000000E+00  0.00000E+00  9.000E+00
      -5     1     1     2     0   503  6.340666373E+00 -6.247075119E+00 -1.730731954E+02  1.733670196E+02  4.750000000E+00  0.00000E+00  9.000E+00
      21     1     1     2   511   502 -5.480615518E+00  7.307228307E+00  2.728971524E+01  2.877779161E+01  2.360223517E-06  0.00000E+00  9.000E+00
#rwgt            1           9   4.6821294003986573E-005           4     2433322           0
</event>
<event>
      6   9999  3.45752E-01  1.89137E+01 -1.00000E+00  1.62084E-01
      21    -1     0     0   512   503  0.000000000E+00  0.000000000E+00  9.868539844E+00  9.868539844E+00  0.000000000E+00  0.00000E+00  9.000E+00
      21    -1     0     0   501   502  0.000000000E+00  0.000000000E+00 -7.865564505E+02  7.865564505E+02  0.000000000E+00  0.00000E+00  9.000E+00
      25     1     1     2     0     0 -3.800720033E+00  2.900808087E+01 -5.686960172E+02  5.830054018E+02  1.249968974E+02  0.00000E+00  9.000E+00
       5     1     1     2   501     0  9.731881094E+00 -1.321910016E+01 -1.428377880E+02  1.438563530E+02  4.750000000E+00  0.00000E+00  9.000E+00
      -5     1     1     2     0   503 -5.203429780E-01  2.334261730E+00 -1.759855891E+01  1.838453998E+01  4.750000000E+00  0.00000E+00  9.000E+00
      21     1     1     2   512   502 -5.410818083E+00 -1.812324244E+01 -4.755554660E+01  5.117869558E+01  6.743495762E-07  0.00000E+00  9.000E+00
#rwgt            1           9   5.4728238021273308E-002           4     2435231           0
</event>
<event>
      6   9999  3.45752E-01  1.28514E+01 -1.00000E+00  1.76403E-01
      21    -1     0     0   502   503  0.000000000E+00  0.000000000E+00  1.299707338E+01  1.299707338E+01  0.000000000E+00  0.00000E+00  9.000E+00
      21    -1     0     0   511   502  0.000000000E+00  0.000000000E+00 -1.669995082E+03  1.669995082E+03  0.000000000E+00  0.00000E+00  9.000E+00
      25     1     1     2     0     0 -3.312968500E+01  2.739745237E+01 -4.033488886E+02  4.244701763E+02  1.250456244E+02  0.00000E+00  9.000E+00
       5     1     1     2   501     0  2.742362436E+01 -4.104644254E+01 -3.573106868E+02  3.607358522E+02  4.750000000E+00  0.00000E+00  9.000E+00
      -5     1     1     2     0   503 -2.485714808E+00  3.746757874E+00 -1.512058954E+01  1.647457741E+01  4.750000000E+00  0.00000E+00  9.000E+00
      21     1     1     2   511   501  8.191775453E+00  9.902232291E+00 -8.812178432E+02  8.813115491E+02  1.525878906E-05  0.00000E+00  9.000E+00
#rwgt            1           9  0.12736215432554654                4     2436768           0
</event>
<event>
      6   9999  3.45752E-01  1.08078E+01 -1.00000E+00  1.83709E-01
      21    -1     0     0   501   512  0.000000000E+00  0.000000000E+00  3.126851227E+02  3.126851227E+02  0.000000000E+00  0.00000E+00  9.000E+00
      21    -1     0     0   502   503  0.000000000E+00  0.000000000E+00 -2.304372126E+01  2.304372126E+01  0.000000000E+00  0.00000E+00  9.000E+00
      25     1     1     2     0     0  3.056620206E+00 -2.785509999E+01  2.034348053E+02  2.404094231E+02  1.250028848E+02  0.00000E+00  9.000E+00
       5     1     1     2   501     0  7.186960668E-02  7.137642155E+00  1.503373706E+01  1.730684405E+01  4.750000000E+00  0.00000E+00  9.000E+00
      -5     1     1     2     0   503 -2.560845109E+00  9.924570366E+00  7.807806746E+00  1.373242043E+01  4.750000000E+00  0.00000E+00  9.000E+00
      21     1     1     2   502   512 -5.676447038E-01  1.079288747E+01  6.336505237E+01  6.428015636E+01  9.536743164E-07  0.00000E+00  9.000E+00
#rwgt            1           9   5.8117434634122134                4     2439626           0
</event>
<event>
      6   9999  3.45752E-01  1.33286E+01 -1.00000E+00  1.74941E-01
      21    -1     0     0   501   502  0.000000000E+00  0.000000000E+00  1.537878845E+02  1.537878845E+02  0.000000000E+00  0.00000E+00  9.000E+00
      21    -1     0     0   511   503  0.000000000E+00  0.000000000E+00 -3.191352035E+02  3.191352035E+02  0.000000000E+00  0.00000E+00  9.000E+00
      25     1     1     2     0     0 -4.902637525E+01 -3.092736007E+01 -1.670033823E+02  2.165059868E+02  1.249985022E+02  0.00000E+00  9.000E+00
       5     1     1     2   501     0  2.007904324E+00 -7.210913209E+00  1.214496131E+02  1.217727390E+02  4.750000000E+00  0.00000E+00  9.000E+00
      -5     1     1     2     0   503  3.477142207E+01  3.287880219E+01 -9.145696054E+01  1.033295967E+02  4.750000000E+00  0.00000E+00  9.000E+00
      21     1     1     2   511   502  1.224704886E+01  5.259471089E+00 -2.833658924E+01  3.131476540E+01  0.000000000E+00  0.00000E+00  9.000E+00
#rwgt            1           9   4.5690914468813975E-004           4     2442223           0
</event>
<event>
      6   9999  3.45752E-01  1.07287E+01 -1.00000E+00  1.84032E-01
      21    -1     0     0   502   512  0.000000000E+00  0.000000000E+00  3.143835473E+02  3.143835473E+02  0.000000000E+00  0.00000E+00  9.000E+00
      21    -1     0     0   501   502  0.000000000E+00  0.000000000E+00 -1.008376528E+03  1.008376528E+03  0.000000000E+00  0.00000E+00  9.000E+00
      25     1     1     2     0     0  2.524080982E+00 -1.476037336E+01 -1.759008570E+02  2.163078521E+02  1.249949430E+02  0.00000E+00  9.000E+00
       5     1     1     2   501     0  6.867438183E+00  1.598730994E+01 -8.065886484E+02  8.067902863E+02  4.750000000E+00  0.00000E+00  9.000E+00
      -5     1     1     2     0   503  1.254232192E+00  1.048607851E-01 -4.383809188E+00  6.585163413E+00  4.750000000E+00  0.00000E+00  9.000E+00
      21     1     1     2   503   512 -1.064575136E+01 -1.331797373E+00  2.928803334E+02  2.930767739E+02  8.529922400E-06  0.00000E+00  9.000E+00
#rwgt            1           9   4.3385945527794219                4     2445569           0
</event>
<event>
      6   9999  3.45752E-01  1.14415E+02 -1.00000E+00  1.18001E-01
      21    -1     0     0   511   502  0.000000000E+00  0.000000000E+00  1.949406039E+02  1.949406039E+02  0.000000000E+00  0.00000E+00  9.000E+00
      21    -1     0     0   502   503  0.000000000E+00  0.000000000E+00 -1.130925686E+03  1.130925686E+03  0.000000000E+00  0.00000E+00  9.000E+00
      25     1     1     2     0     0  1.315660121E+02 -1.171887194E+01 -6.322990956E+02  6.579315253E+02  1.249991927E+02  0.00000E+00  9.000E+00
       5     1     1     2   501     0  1.493969835E+01  2.068105596E+01 -2.206268919E+01  3.406208181E+01  4.750000000E+00  0.00000E+00  9.000E+00
      -5     1     1     2     0   503 -5.928712849E+01  6.508987886E+01 -4.342564103E+02  4.431171948E+02  4.750000000E+00  0.00000E+00  9.000E+00
      21     1     1     2   511   501 -8.721858191E+01 -7.405206289E+01  1.526331129E+02  1.907554880E+02  0.000000000E+00  0.00000E+00  9.000E+00
#rwgt            1           9   6.6178552659341457E-005           4     2448713           0
</event>
<event>
      6   9999  3.45752E-01  5.08505E+00 -1.00000E+00  2.24582E-01
      21    -1     0     0   501   502  0.000000000E+00  0.000000000E+00  1.448681924E+02  1.448681924E+02  0.000000000E+00  0.00000E+00  9.000E+00
       2    -1     0     0   502     0  0.000000000E+00  0.000000000E+00 -2.357675414E+02  2.357675414E+02  0.000000000E+00  0.00000E+00  9.000E+00
      25     1     1     2     0     0  8.622154506E+00 -7.119091299E-01  6.332722963E+01  1.403827629E+02  1.249885344E+02  0.00000E+00  9.000E+00
       5     1     1     2   501     0 -9.113896975E-01  3.995421187E-01  3.845897538E+01  3.876397235E+01  4.750000000E+00  0.00000E+00  9.000E+00
      -5     1     1     2     0   503 -1.003687632E+01 -4.209465000E+00 -3.704618317E+00  1.243966152E+01  4.750000000E+00  0.00000E+00  9.000E+00
       2     1     1     2   503     0  2.326111513E+00  4.521832011E+00 -1.889809358E+02  1.890493371E+02  0.000000000E+00  0.00000E+00  9.000E+00
#rwgt            1           9   4.8677030256032543                4     2450056           0
</event>
<event>
      6   9999  3.45752E-01  1.47607E+01 -1.00000E+00  1.70979E-01
      21    -1     0     0   501   502  0.000000000E+00  0.000000000E+00  6.480455169E+02  6.480455169E+02  0.000000000E+00  0.00000E+00  9.000E+00
       1    -1     0     0   502     0  0.000000000E+00  0.000000000E+00 -5.456846952E+01  5.456846952E+01  0.000000000E+00  0.00000E+00  9.000E+00
      25     1     1     2     0     0 -7.015755516E+00 -1.400144953E+01  4.391923023E+02  4.569025834E+02  1.249993233E+02  0.00000E+00  9.000E+00
       5     1     1     2   501     0 -6.786618118E-01  2.125748357E+00  1.738175167E+02  1.738967250E+02  4.750000000E+00  0.00000E+00  9.000E+00
      -5     1     1     2     0   503 -1.476703396E+00  3.098375748E-01  2.469286389E+01  2.519080545E+01  4.750000000E+00  0.00000E+00  9.000E+00
       1     1     1     2   503     0  9.171120724E+00  1.156586360E+01 -4.422563550E+01  4.662387255E+01  2.654916936E-06  0.00000E+00  9.000E+00
#rwgt            1           9   4.6046235992932812E-003           4     2453878           0
</event>
<event>
      6   9999  3.45752E-01  1.33877E+01 -1.00000E+00  1.74765E-01
       2    -1     0     0   501     0  0.000000000E+00  0.000000000E+00  3.930422640E+03  3.930422640E+03  0.000000000E+00  0.00000E+00  9.000E+00
      21    -1     0     0   502   503  0.000000000E+00  0.000000000E+00 -8.673466100E+02  8.673466100E+02  0.000000000E+00  0.00000E+00  9.000E+00
      25     1     1     2     0     0 -5.833677661E+01 -1.371702147E+01 -6.328264867E+02  6.478315597E+02  1.250001249E+02  0.00000E+00  9.000E+00
       5     1     1     2   501     0  1.591871135E-01 -1.767249295E+00 -1.290152151E+00  5.232160470E+00  4.750000000E+00  0.00000E+00  9.000E+00
      -5     1     1     2     0   503  6.082100972E+01  2.360113667E+00 -2.195802851E+02  2.279096959E+02  4.750000000E+00  0.00000E+00  9.000E+00
       2     1     1     2   502     0 -2.643420230E+00  1.312415710E+01  3.916772954E+03  3.916795834E+03  4.315837288E-05  0.00000E+00  9.000E+00
#rwgt            1           9   2.8763922671777223E-004           4     2455852           0
</event>
<event>
      6   9999  3.45752E-01  5.03253E+01 -1.00000E+00  1.34637E-01
      21    -1     0     0   501   502  0.000000000E+00  0.000000000E+00  1.544151834E+01  1.544151834E+01  0.000000000E+00  0.00000E+00  9.000E+00
       2    -1     0     0   502     0  0.000000000E+00  0.000000000E+00 -2.713618427E+03  2.713618427E+03  0.000000000E+00  0.00000E+00  9.000E+00
      25     1     1     2     0     0 -5.344975974E+01  6.432910613E+01 -6.218422363E+02  6.397711617E+02  1.249970469E+02  0.00000E+00  9.000E+00
       5     1     1     2   501     0  5.109323699E+01 -2.896757392E+01 -1.569546973E+02  1.676513606E+02  4.750000000E+00  0.00000E+00  9.000E+00
      -5     1     1     2     0   503 -1.474546805E+01  1.196874182E+01 -1.226266992E+02  1.241795050E+02  4.750000000E+00  0.00000E+00  9.000E+00
       2     1     1     2   503     0  1.710199080E+01 -4.733027404E+01 -1.796753275E+03  1.797457918E+03  2.157918644E-05  0.00000E+00  9.000E+00
#rwgt            1           9   4.8937729839287625E-002           4     2458194           0
</event>
<event>
      6   9999  3.45752E-01  2.00243E+01 -1.00000E+00  1.60170E-01
      21    -1     0     0   501   502  0.000000000E+00  0.000000000E+00  3.552760731E+01  3.552760731E+01  0.000000000E+00  0.00000E+00  9.000E+00
      21    -1     0     0   502   511  0.000000000E+00  0.000000000E+00 -1.857211083E+03  1.857211083E+03  0.000000000E+00  0.00000E+00  9.000E+00
      25     1     1     2     0     0 -2.212154726E+01 -1.138346319E+01 -1.557436045E+03  1.562641640E+03  1.249916540E+02  0.00000E+00  9.000E+00
       5     1     1     2   501     0  2.689650787E+00 -1.620388981E+00  3.191753920E+01  3.242146959E+01  4.750000000E+00  0.00000E+00  9.000E+00
      -5     1     1     2     0   503  4.452135339E-03  8.151210564E+00 -1.217264567E+02  1.220915026E+02  4.750000000E+00  0.00000E+00  9.000E+00
      21     1     1     2   503   511  1.942744434E+01  4.852641605E+00 -1.744385134E+02  1.755840787E+02  0.000000000E+00  0.00000E+00  9.000E+00
#rwgt            1           9   1.6544836296410445E-005           4     2459095           0
</event>
<event>
      6   9999  3.45752E-01  9.06623E+01 -1.00000E+00  1.22272E-01
      21    -1     0     0   501   502  0.000000000E+00  0.000000000E+00  2.026828668E+03  2.026828668E+03  0.000000000E+00  0.00000E+00  9.000E+00
      21    -1     0     0   512   503  0.000000000E+00  0.000000000E+00 -1.544445435E+02  1.544445435E+02  0.000000000E+00  0.00000E+00  9.000E+00
      25     1     1     2     0     0 -3.416619066E+02  1.545694761E+02  6.028670377E+02  7.209017994E+02  1.250046313E+02  0.00000E+00  9.000E+00
       5     1     1     2   501     0  3.506249819E+00  5.448255516E+00  3.724140827E+02  3.725007232E+02  4.750000000E+00  0.00000E+00  9.000E+00
      -5     1     1     2     0   503  3.766453327E+02 -7.793124208E+01  9.175644203E+02  9.949281446E+02  4.750000000E+00  0.00000E+00  9.000E+00
      21     1     1     2   512   502 -3.848967599E+01 -8.208648954E+01 -2.046141641E+01  9.294254400E+01  5.331201500E-07  0.00000E+00  9.000E+00
#rwgt            1           9   1.0931302105499859E-004           4     2461462           0
</event>
<event>
      6   9999  3.45752E-01  8.11130E+00 -1.00000E+00  1.97308E-01
      21    -1     0     0   501   502  0.000000000E+00  0.000000000E+00  2.087943871E+01  2.087943871E+01  0.000000000E+00  0.00000E+00  9.000E+00
      21    -1     0     0   511   503  0.000000000E+00  0.000000000E+00 -3.393341170E+02  3.393341170E+02  0.000000000E+00  0.00000E+00  9.000E+00
      25     1     1     2     0     0  1.983981235E+00 -1.369460650E+01 -2.696365634E+02  2.975317814E+02  1.250192232E+02  0.00000E+00  9.000E+00
       5     1     1     2   501     0 -1.532408478E+00 -1.331955286E-01  2.441565123E+00  5.557855436E+00  4.750000000E+00  0.00000E+00  9.000E+00
      -5     1     1     2     0   503 -8.021440743E+00  1.091400081E+01 -1.872506339E+01  2.359341909E+01  4.750000000E+00  0.00000E+00  9.000E+00
      21     1     1     2   511   502  7.569867986E+00  2.913801223E+00 -3.253461656E+01  3.353049975E+01  6.743495762E-07  0.00000E+00  9.000E+00
#rwgt            1           9   1.7059868820728252E-002           4     2462862           0
</event>
<event>
      6   9999 -3.45752E-01  7.04938E+01 -1.00000E+00  1.27262E-01
      21    -1     0     0   501   502  0.000000000E+00  0.000000000E+00  7.416572528E+01  7.416572528E+01  0.000000000E+00  0.00000E+00  9.000E+00
      21    -1     0     0   512   503  0.000000000E+00  0.000000000E+00 -1.556296930E+03  1.556296930E+03  0.000000000E+00  0.00000E+00  9.000E+00
      25     1     1     2     0     0 -1.756881319E+02  1.453504279E+02 -5.507241625E+02  6.090283728E+02  1.250015567E+02  0.00000E+00  9.000E+00
       5     1     1     2   501     0  3.678691805E+00 -4.452372419E+00  9.116585262E+00  1.179114161E+01  4.750000000E+00  0.00000E+00  9.000E+00
      -5     1     1     2     0   503  2.272349362E+02 -1.847103584E+02 -6.947268125E+02  7.539373576E+02  4.750000000E+00  0.00000E+00  9.000E+00
      21     1     1     2   512   502 -5.522549609E+01  4.381230290E+01 -2.457968148E+02  2.557057831E+02  0.000000000E+00  0.00000E+00  9.000E+00
#rwgt            1           9  -2.0414717260795805E-004           4     2465379           0
</event>
<event>
      6   9999  3.45752E-01  5.46806E+01 -1.00000E+00  1.32740E-01
      21    -1     0     0   502   511  0.000000000E+00  0.000000000E+00  3.398358421E+02  3.398358421E+02  0.000000000E+00  0.00000E+00  9.000E+00
      21    -1     0     0   501   502  0.000000000E+00  0.000000000E+00 -4.862963456E+02  4.862963456E+02  0.000000000E+00  0.00000E+00  9.000E+00
      25     1     1     2     0     0  5.395159181E+01  8.154832417E+01 -1.609641266E+02  2.260446894E+02  1.250033924E+02  0.00000E+00  9.000E+00
       5     1     1     2   501     0 -1.994201110E+02  2.044022958E+01 -2.251392430E+02  3.014903396E+02  4.750000000E+00  0.00000E+00  9.000E+00
      -5     1     1     2     0   503  1.024911585E+02 -6.818149076E+01  1.583475397E+02  2.006231768E+02  4.750000000E+00  0.00000E+00  9.000E+00
      21     1     1     2   503   511  4.297736071E+01 -3.380706299E+01  8.129532635E+01  9.797398189E+01  9.536743164E-07  0.00000E+00  9.000E+00
#rwgt            1           9   92.576426530161783                4     2466716           0
</event>
<event>
      6   9999  3.45752E-01  2.98347E+00 -1.00000E+00  2.77541E-01
      21    -1     0     0   512   502  0.000000000E+00  0.000000000E+00  2.355179867E+02  2.355179867E+02  0.000000000E+00  0.00000E+00  9.000E+00
      21    -1     0     0   502   503  0.000000000E+00  0.000000000E+00 -1.137874425E+03  1.137874425E+03  0.000000000E+00  0.00000E+00  9.000E+00
      25     1     1     2     0     0 -1.860735107E+01  3.241388451E+01 -8.368917176E+02  8.470007493E+02  1.250025159E+02  0.00000E+00  9.000E+00
       5     1     1     2   501     0 -1.838212773E+00 -3.215626697E+00  1.953225394E+01  2.043992968E+01  4.750000000E+00  0.00000E+00  9.000E+00
      -5     1     1     2     0   503  2.321584950E+01 -2.809074457E+01 -2.943209201E+02  2.966065274E+02  4.750000000E+00  0.00000E+00  9.000E+00
      21     1     1     2   512   501 -2.770285657E+00 -1.107513245E+00  2.093239452E+02  2.093452055E+02  6.031565972E-06  0.00000E+00  9.000E+00
#rwgt            1           9   4.2415583939744446E-004           4     2468038           0
</event>
<event>
      6   9999 -3.45752E-01  4.17843E+00 -1.00000E+00  2.43991E-01
      21    -1     0     0   501   502  0.000000000E+00  0.000000000E+00  1.389390562E+01  1.389390562E+01  0.000000000E+00  0.00000E+00  9.000E+00
      21    -1     0     0   511   503  0.000000000E+00  0.000000000E+00 -8.900216340E+02  8.900216340E+02  0.000000000E+00  0.00000E+00  9.000E+00
      25     1     1     2     0     0 -1.512136995E+01  1.047523400E+01 -7.468851306E+02  7.574954635E+02  1.249943701E+02  0.00000E+00  9.000E+00
       5     1     1     2   501     0  3.956812313E-01  1.766054492E+00  6.980021350E+00  8.634738569E+00  4.750000000E+00  0.00000E+00  9.000E+00
      -5     1     1     2     0   503  1.069875950E+01 -1.112632047E+01 -1.173228812E+02  1.184292169E+02  4.750000000E+00  0.00000E+00  9.000E+00
      21     1     1     2   511   502  4.026929212E+00 -1.114968020E+00 -1.889973794E+01  1.935612066E+01  2.384185791E-07  0.00000E+00  9.000E+00
#rwgt            1           9  -2.0986316828662112E-003           4     2475875           0
</event>
<event>
      6   9999  3.45752E-01  8.73385E+00 -1.00000E+00  1.93607E-01
      21    -1     0     0   512   502  0.000000000E+00  0.000000000E+00  1.370445906E+02  1.370445906E+02  0.000000000E+00  0.00000E+00  9.000E+00
      21    -1     0     0   502   503  0.000000000E+00  0.000000000E+00 -2.777840959E+02  2.777840959E+02  0.000000000E+00  0.00000E+00  9.000E+00
      25     1     1     2     0     0  2.018137260E+00  1.125799608E+01 -2.534081121E+02  2.827941747E+02  1.250042345E+02  0.00000E+00  9.000E+00
       5     1     1     2   501     0  2.614174463E-01  5.851055016E-01 -1.141089470E+00  4.926994287E+00  4.750000000E+00  0.00000E+00  9.000E+00
      -5     1     1     2     0   503 -3.415802192E+00 -3.183482083E+00 -4.778911239E+00  8.197728674E+00  4.750000000E+00  0.00000E+00  9.000E+00
      21     1     1     2   512   501  1.136247485E+00 -8.659619501E+00  1.185886074E+02  1.189097888E+02  1.348699152E-06  0.00000E+00  9.000E+00
#rwgt            1           9   1.0542299675869136E-003           4     2480591           0
</event>
<event>
      6   9999  3.45752E-01  1.31148E+01 -1.00000E+00  1.75586E-01
      21    -1     0     0   501   511  0.000000000E+00  0.000000000E+00  1.104684500E+01  1.104684500E+01  0.000000000E+00  0.00000E+00  9.000E+00
      21    -1     0     0   502   503  0.000000000E+00  0.000000000E+00 -8.037156413E+02  8.037156413E+02  0.000000000E+00  0.00000E+00  9.000E+00
      25     1     1     2     0     0 -3.635191218E+00  1.348819008E+01 -5.473154943E+02  5.615825131E+02  1.250020912E+02  0.00000E+00  9.000E+00
       5     1     1     2   501     0  2.112981064E+00  5.341446012E-01 -5.216023018E-01  5.252101331E+00  4.750000000E+00  0.00000E+00  9.000E+00
      -5     1     1     2     0   503  1.435994404E+01 -1.670396851E+01 -1.985250743E+02  1.997998953E+02  4.750000000E+00  0.00000E+00  9.000E+00
      21     1     1     2   502   511 -1.283773388E+01  2.681633828E+00 -4.630662541E+01  4.812797657E+01  6.743495762E-07  0.00000E+00  9.000E+00
#rwgt            1           9   5.5592060856397287E-004           4     2483014           0
</event>
<event>
      6   9999 -3.45752E-01  7.30777E+00 -1.00000E+00  2.02785E-01
      21    -1     0     0   501   502  0.000000000E+00  0.000000000E+00  1.156406957E+01  1.156406957E+01  0.000000000E+00  0.00000E+00  9.000E+00
      21    -1     0     0   502   512  0.000000000E+00  0.000000000E+00 -1.710948355E+03  1.710948355E+03  0.000000000E+00  0.00000E+00  9.000E+00
      25     1     1     2     0     0  1.007677502E+01 -5.134849468E+00 -5.202512259E+02  5.351767462E+02  1.249996139E+02  0.00000E+00  9.000E+00
       5     1     1     2   501     0 -9.408908523E-02  8.812740714E-01  2.612653927E+00  5.493082676E+00  4.750000000E+00  0.00000E+00  9.000E+00
      -5     1     1     2     0   503 -2.779847205E+00  3.019625383E+00 -2.950793380E+02  2.951461060E+02  4.750000000E+00  0.00000E+00  9.000E+00
      21     1     1     2   503   512 -7.202838725E+00  1.233950014E+00 -8.866663757E+02  8.866964899E+02  1.078959322E-05  0.00000E+00  9.000E+00
#rwgt            1           9  -7.5969593672960253E-004           4     2484914           0
</event>
<event>
      6   9999  3.45752E-01  4.34545E+01 -1.00000E+00  1.38131E-01
      21    -1     0     0   501   502  0.000000000E+00  0.000000000E+00  6.531843910E+02  6.531843910E+02  0.000000000E+00  0.00000E+00  9.000E+00
       2    -1     0     0   502     0  0.000000000E+00  0.000000000E+00 -4.816996302E+02  4.816996302E+02  0.000000000E+00  0.00000E+00  9.000E+00
      25     1     1     2     0     0  7.385195355E+01 -1.190929364E+02 -8.532556239E+01  2.062590541E+02  1.250004290E+02  0.00000E+00  9.000E+00
       5     1     1     2   501     0 -8.341335499E+00 -1.612918593E+00  5.386034897E+02  5.386914339E+02  4.750000000E+00  0.00000E+00  9.000E+00
      -5     1     1     2     0   503 -1.006057033E+02  9.508113652E+01 -3.986093253E+01  1.441297558E+02  4.750000000E+00  0.00000E+00  9.000E+00
       2     1     1     2   503     0  3.509508524E+01  2.562471846E+01 -2.419322340E+02  2.458037775E+02  4.672030912E-06  0.00000E+00  9.000E+00
#rwgt            1           9   7.7984328277875528E-004           4     2488467           0
</event>
<event>
      6   9999 -3.45752E-01  5.64589E+00 -1.00000E+00  2.17805E-01
      21    -1     0     0   501   511  0.000000000E+00  0.000000000E+00  1.313570517E+01  1.313570517E+01  0.000000000E+00  0.00000E+00  9.000E+00
      21    -1     0     0   502   503  0.000000000E+00  0.000000000E+00 -7.830517238E+02  7.830517238E+02  0.000000000E+00  0.00000E+00  9.000E+00
      25     1     1     2     0     0  2.940960358E+01  1.581437603E+00 -6.781679876E+02  6.902206816E+02  1.250013769E+02  0.00000E+00  9.000E+00
       5     1     1     2   501     0  8.140106054E-01 -6.280864233E-01 -8.891098514E-01  4.940660092E+00  4.750000000E+00  0.00000E+00  9.000E+00
      -5     1     1     2     0   503 -2.459308070E+01 -1.369427994E+00 -9.191996944E+01  9.528136352E+01  4.750000000E+00  0.00000E+00  9.000E+00
      21     1     1     2   502   511 -5.630533489E+00  4.160768144E-01  1.061048262E+00  5.744723727E+00  3.417535109E-07  0.00000E+00  9.000E+00
#rwgt            1           9  -4.1890101447111973E-004           4     2490254           0
</event>
<event>
      6   9999  3.45752E-01  4.25066E+01 -1.00000E+00  1.38672E-01
      21    -1     0     0   512   502  0.000000000E+00  0.000000000E+00  4.505569226E+01  4.505569226E+01  0.000000000E+00  0.00000E+00  9.000E+00
      21    -1     0     0   502   503  0.000000000E+00  0.000000000E+00 -1.314577093E+03  1.314577093E+03  0.000000000E+00  0.00000E+00  9.000E+00
      25     1     1     2     0     0  7.322422536E+01  7.205724060E+01 -4.213027746E+02  4.513094984E+02  1.250208077E+02  0.00000E+00  9.000E+00
       5     1     1     2   501     0 -3.049255784E-01  1.072930207E+01  1.828003631E+01  2.172402196E+01  4.750000000E+00  0.00000E+00  9.000E+00
      -5     1     1     2     0   503 -9.018042430E+01 -4.394245738E+01 -8.083835494E+02  8.145980444E+02  4.750000000E+00  0.00000E+00  9.000E+00
      21     1     1     2   512   501  1.726112452E+01 -3.884408529E+01 -5.811511286E+01  7.200122029E+01  6.743495762E-07  0.00000E+00  9.000E+00
#rwgt            1           9   1.4320350742264960E-002           4     2493887           0
</event>
<event>
      6   9999  3.45752E-01  5.91499E+00 -1.00000E+00  2.14925E-01
      21    -1     0     0   501   511  0.000000000E+00  0.000000000E+00  6.933993858E+00  6.933993858E+00  0.000000000E+00  0.00000E+00  9.000E+00
      21    -1     0     0   502   503  0.000000000E+00  0.000000000E+00 -2.443216880E+03  2.443216880E+03  0.000000000E+00  0.00000E+00  9.000E+00
      25     1     1     2     0     0 -1.908994443E+01 -1.536713447E+00 -2.266708631E+03  2.270233075E+03  1.249936299E+02  0.00000E+00  9.000E+00
       5     1     1     2   501     0 -4.559661396E-01  2.663259132E+00  2.797722162E-01  5.471894262E+00  4.750000000E+00  0.00000E+00  9.000E+00
      -5     1     1     2     0   503  2.538241855E+01 -1.661806622E-01 -1.643493787E+02  1.663657884E+02  4.750000000E+00  0.00000E+00  9.000E+00
      21     1     1     2   502   511 -5.836507988E+00 -9.603650234E-01 -5.504648519E+00  8.080116446E+00  1.685873940E-07  0.00000E+00  9.000E+00
#rwgt            1           9   6.1570995615092888E-003           4     2495391           0
</event>
<event>
      6   9999  3.45752E-01  1.68156E+01 -1.00000E+00  1.66180E-01
      21    -1     0     0   501   502  0.000000000E+00  0.000000000E+00  2.114499251E+02  2.114499251E+02  0.000000000E+00  0.00000E+00  9.000E+00
      21    -1     0     0   512   503  0.000000000E+00  0.000000000E+00 -2.739024215E+02  2.739024215E+02  0.000000000E+00  0.00000E+00  9.000E+00
      25     1     1     2     0     0  9.585897539E+01  8.991281176E+01 -5.167195453E+01  1.885994937E+02  1.250060848E+02  0.00000E+00  9.000E+00
       5     1     1     2   501     0 -4.074346914E-01 -1.814972700E-01  4.821561378E+01  4.845107694E+01  4.750000000E+00  0.00000E+00  9.000E+00
      -5     1     1     2     0   503 -8.215082435E+01 -1.000199922E+02  4.939139223E+01  1.386175635E+02  4.750000000E+00  0.00000E+00  9.000E+00
      21     1     1     2   512   502 -1.330071635E+01  1.028867775E+01 -1.083875479E+02  1.096842125E+02  1.348699152E-06  0.00000E+00  9.000E+00
#rwgt            1           9   8.2368345175154892E-005           4     2498883           0
</event>
<event>
      6   9999  3.45752E-01  5.85931E+00 -1.00000E+00  2.15503E-01
      21    -1     0     0   501   502  0.000000000E+00  0.000000000E+00  2.383615451E+02  2.383615451E+02  0.000000000E+00  0.00000E+00  9.000E+00
      21    -1     0     0   502   511  0.000000000E+00  0.000000000E+00 -1.699561334E+02  1.699561334E+02  0.000000000E+00  0.00000E+00  9.000E+00
      25     1     1     2     0     0 -6.414830373E+01 -7.281185155E+01  1.085521081E+02  1.918997691E+02  1.250015625E+02  0.00000E+00  9.000E+00
       5     1     1     2   501     0 -3.143058981E+00  9.509193802E-01  6.898154713E+01  6.922282436E+01  4.750000000E+00  0.00000E+00  9.000E+00
      -5     1     1     2     0   503  6.298380880E+01  6.788896305E+01 -1.046419548E+02  1.398154951E+02  4.750000000E+00  0.00000E+00  9.000E+00
      21     1     1     2   503   511  4.307553910E+00  3.971969121E+00 -4.486288840E+00  7.379589890E+00  1.192092896E-07  0.00000E+00  9.000E+00
#rwgt            1           9   1.9453978535021337E-002           4     2501054           0
</event>
<event>
      6   9999  3.45752E-01  5.66986E+00 -1.00000E+00  2.17540E-01
       2    -1     0     0   501     0  0.000000000E+00  0.000000000E+00  1.323751777E+02  1.323751777E+02  0.000000000E+00  0.00000E+00  9.000E+00
      21    -1     0     0   502   503  0.000000000E+00  0.000000000E+00 -4.528449415E+02  4.528449415E+02  0.000000000E+00  0.00000E+00  9.000E+00
      25     1     1     2     0     0 -7.865400098E+01 -1.621953169E+00 -2.154050831E+02  2.611777660E+02  1.250015721E+02  0.00000E+00  9.000E+00
       5     1     1     2   501     0  8.692559185E-01 -4.978660858E+00  4.431529987E+01  4.485477647E+01  4.750000000E+00  0.00000E+00  9.000E+00
      -5     1     1     2     0   503  7.775307399E+01  9.308469938E-01 -2.070596540E+02  2.212299026E+02  4.750000000E+00  0.00000E+00  9.000E+00
       2     1     1     2   502     0  3.167106808E-02  5.669767034E+00  5.767967341E+01  5.795767409E+01  9.536743164E-07  0.00000E+00  9.000E+00
#rwgt            1           9   5.1501484586046527E-004           4     2506192           0
</event>
<event>
      6   9999 -3.45752E-01  7.07014E+00 -1.00000E+00  2.04588E-01
      21    -1     0     0   511   502  0.000000000E+00  0.000000000E+00  2.687957565E+01  2.687957565E+01  0.000000000E+00  0.00000E+00  9.000E+00
      21    -1     0     0   502   503  0.000000000E+00  0.000000000E+00 -8.927122177E+02  8.927122177E+02  0.000000000E+00  0.00000E+00  9.000E+00
      25     1     1     2     0     0 -5.815473918E+01 -1.509189428E+01 -7.375680568E+02  7.504941772E+02  1.250005306E+02  0.00000E+00  9.000E+00
       5     1     1     2   501     0  8.143957249E-01 -2.594912647E-01  2.767248538E+00  5.563338978E+00  4.750000000E+00  0.00000E+00  9.000E+00
      -5     1     1     2     0   503  5.446966675E+01  2.181250733E+01 -1.401413961E+02  1.520029719E+02  4.750000000E+00  0.00000E+00  9.000E+00
      21     1     1     2   511   501  2.870676704E+00 -6.461121786E+00  9.109562204E+00  1.153130535E+01  3.769728732E-07  0.00000E+00  9.000E+00
#rwgt            1           9  -1.0735746772071778E-003           4     2511771           0
</event>
<event>
      6   9999 -3.45752E-01  2.97768E+01 -1.00000E+00  1.48048E-01
      21    -1     0     0   512   502  0.000000000E+00  0.000000000E+00  1.377811058E+02  1.377811058E+02  0.000000000E+00  0.00000E+00  9.000E+00
      21    -1     0     0   502   503  0.000000000E+00  0.000000000E+00 -1.192812056E+03  1.192812056E+03  0.000000000E+00  0.00000E+00  9.000E+00
      25     1     1     2     0     0 -3.390775421E+01  4.535764192E+01 -9.183690752E+02  9.285642005E+02  1.249906588E+02  0.00000E+00  9.000E+00
       5     1     1     2   501     0  1.041227076E+00  1.286090543E+01  2.305205519E+01  2.684113989E+01  4.750000000E+00  0.00000E+00  9.000E+00
      -5     1     1     2     0   503  5.240541155E+01 -3.574883116E+01 -2.615047006E+02  2.691311520E+02  4.750000000E+00  0.00000E+00  9.000E+00
      21     1     1     2   512   501 -1.953888442E+01 -2.246971619E+01  1.017907705E+02  1.060566693E+02  4.672030912E-06  0.00000E+00  9.000E+00
#rwgt            1           9  -5.2661547909644731E-003           4     2516152           0
</event>
<event>
      6   9999  3.45752E-01  5.70716E+00 -1.00000E+00  2.17130E-01
      -1    -1     0     0     0   502  0.000000000E+00  0.000000000E+00  6.975407860E+01  6.975407860E+01  0.000000000E+00  0.00000E+00  9.000E+00
      21    -1     0     0   502   503  0.000000000E+00  0.000000000E+00 -7.071073667E+02  7.071073667E+02  0.000000000E+00  0.00000E+00  9.000E+00
      25     1     1     2     0     0  4.140883424E+00  9.644767026E-03 -6.325662782E+02  6.448117113E+02  1.249995989E+02  0.00000E+00  9.000E+00
       5     1     1     2   501     0 -5.040813761E-01 -9.476627524E-01 -4.992076131E+00  6.973914742E+00  4.750000000E+00  0.00000E+00  9.000E+00
      -5     1     1     2     0   503  1.613909393E+00 -1.298443106E+00 -6.219740920E+01  6.241290628E+01  4.750000000E+00  0.00000E+00  9.000E+00
      -1     1     1     2     0   501 -5.250711441E+00  2.236461091E+00  6.240247541E+01  6.266291300E+01  1.168007728E-06  0.00000E+00  9.000E+00
#rwgt            1           9   1.4096534730551492E-002           4     2517908           0
</event>
<event>
      6   9999  3.45752E-01  3.65161E+00 -1.00000E+00  2.56337E-01
      21    -1     0     0   501   511  0.000000000E+00  0.000000000E+00  3.755677642E+02  3.755677642E+02  0.000000000E+00  0.00000E+00  9.000E+00
      21    -1     0     0   502   503  0.000000000E+00  0.000000000E+00 -1.119498027E+03  1.119498027E+03  0.000000000E+00  0.00000E+00  9.000E+00
      25     1     1     2     0     0 -2.769045218E+00 -7.406952095E+00 -1.091575113E+03  1.098737442E+03  1.250008344E+02  0.00000E+00  9.000E+00
       5     1     1     2   501     0 -1.931425495E+00  6.403247204E+00  2.384657602E+01  2.521812180E+01  4.750000000E+00  0.00000E+00  9.000E+00
      -5     1     1     2     0   503  3.139560834E+00 -2.297478563E+00 -2.324781438E+01  2.404492927E+01  4.750000000E+00  0.00000E+00  9.000E+00
      21     1     1     2   502   511  1.560909879E+00  3.301183454E+00  3.470460881E+02  3.470652986E+02  6.607249480E-06  0.00000E+00  9.000E+00
#rwgt            1           9   8.4879070374614758E-005           4     2521215           0
</event>
<event>
      6   9999  3.45752E-01  3.72534E+01 -1.00000E+00  1.42001E-01
      21    -1     0     0   501   502  0.000000000E+00  0.000000000E+00  1.698223661E+01  1.698223661E+01  0.000000000E+00  0.00000E+00  9.000E+00
      21    -1     0     0   512   503  0.000000000E+00  0.000000000E+00 -1.110706184E+03  1.110706184E+03  0.000000000E+00  0.00000E+00  9.000E+00
      25     1     1     2     0     0 -1.337096861E+00 -5.605059316E+01 -4.705628349E+02  4.900997170E+02  1.249995767E+02  0.00000E+00  9.000E+00
       5     1     1     2   501     0  1.620286353E+00  5.647897643E-01 -3.218676419E+00  5.988880800E+00  4.750000000E+00  0.00000E+00  9.000E+00
      -5     1     1     2     0   503  2.989726850E+01  7.732509123E+01 -4.005623528E+02  4.090791823E+02  4.750000000E+00  0.00000E+00  9.000E+00
      21     1     1     2   512   502 -3.018045799E+01 -2.183928783E+01 -2.193800831E+02  2.225206404E+02  0.000000000E+00  0.00000E+00  9.000E+00
#rwgt            1           9   3.0158243821684671E-004           4     2529397           0
</event>
<event>
      6   9999  3.45752E-01  1.76061E+01 -1.00000E+00  1.64555E-01
      21    -1     0     0   501   502  0.000000000E+00  0.000000000E+00  1.185588583E+02  1.185588583E+02  0.000000000E+00  0.00000E+00  9.000E+00
      21    -1     0     0   511   503  0.000000000E+00  0.000000000E+00 -1.219330572E+02  1.219330572E+02  0.000000000E+00  0.00000E+00  9.000E+00
      25     1     1     2     0     0  2.791680955E+00 -1.109592275E+01 -5.491147154E+01  1.370088029E+02  1.250009176E+02  0.00000E+00  9.000E+00
       5     1     1     2   501     0  6.817987564E+00 -4.765809521E+00  6.954051567E+01  7.019717739E+01  4.750000000E+00  0.00000E+00  9.000E+00
      -5     1     1     2     0   503  2.013858545E+00  2.637960635E+00  2.456535151E+00  6.293768942E+00  4.750000000E+00  0.00000E+00  9.000E+00
      21     1     1     2   511   502 -1.162352706E+01  1.322377164E+01 -2.045977813E+01  2.699216625E+01  5.840038640E-07  0.00000E+00  9.000E+00
#rwgt            1           9   3.7433001780054287E-003           4     2530264           0
</event>
<event>
      6   9999 -3.45752E-01  3.10828E+00 -1.00000E+00  2.72945E-01
      21    -1     0     0   501   512  0.000000000E+00  0.000000000E+00  1.039861436E+01  1.039861436E+01  0.000000000E+00  0.00000E+00  9.000E+00
      21    -1     0     0   502   503  0.000000000E+00  0.000000000E+00 -7.607888631E+02  7.607888631E+02  0.000000000E+00  0.00000E+00  9.000E+00
      25     1     1     2     0     0  6.759390848E-01 -6.151668429E-01 -7.203125670E+02  7.310797514E+02  1.250062932E+02  0.00000E+00  9.000E+00
       5     1     1     2   501     0  7.454787192E-02 -2.276118434E+00  2.564253334E+00  5.858683101E+00  4.750000000E+00  0.00000E+00  9.000E+00
      -5     1     1     2     0   503 -2.977823893E+00  7.232445267E-01 -2.858341084E+01  2.913699355E+01  4.750000000E+00  0.00000E+00  9.000E+00
      21     1     1     2   502   512  2.227336937E+00  2.168040750E+00 -4.058524146E+00  5.112049371E+00  8.429369702E-08  0.00000E+00  9.000E+00
#rwgt            1           9  -2.6043103316372848E-004           4     2532092           0
</event>
<event>
      6   9999  3.45752E-01  2.38253E+00 -1.00000E+00  3.06009E-01
      21    -1     0     0   501   502  0.000000000E+00  0.000000000E+00  4.843426088E+02  4.843426088E+02  0.000000000E+00  0.00000E+00  9.000E+00
      -2    -1     0     0     0   503  0.000000000E+00  0.000000000E+00 -4.967872256E+02  4.967872256E+02  0.000000000E+00  0.00000E+00  9.000E+00
      25     1     1     2     0     0 -2.751538611E+00  7.362157172E-01  2.780844840E+02  3.049029349E+02  1.250068259E+02  0.00000E+00  9.000E+00
       5     1     1     2   501     0  6.811634102E-01 -1.982445551E-02  1.836797314E+02  1.837424028E+02  4.750000000E+00  0.00000E+00  9.000E+00
      -5     1     1     2     0   503  9.840727851E-01  1.404074986E+00  8.436954742E+00  9.832829253E+00  4.750000000E+00  0.00000E+00  9.000E+00
      -2     1     1     2     0   502  1.086302416E+00 -2.120466248E+00 -4.826457869E+02  4.826516674E+02  7.629394531E-06  0.00000E+00  9.000E+00
#rwgt            1           9   1.1586577032027499E-004           4     2537814           0
</event>
<event>
      6   9999  3.45752E-01  1.45655E+01 -1.00000E+00  1.71485E-01
      21    -1     0     0   501   502  0.000000000E+00  0.000000000E+00  8.416236318E+01  8.416236318E+01  0.000000000E+00  0.00000E+00  9.000E+00
      21    -1     0     0   511   503  0.000000000E+00  0.000000000E+00 -1.279641859E+02  1.279641859E+02  0.000000000E+00  0.00000E+00  9.000E+00
      25     1     1     2     0     0 -1.207159617E+01  5.883662006E-01 -6.882646943E+01  1.432061654E+02  1.249994132E+02  0.00000E+00  9.000E+00
       5     1     1     2   501     0 -2.476455817E-02  5.756970242E+00  3.733131459E+01  3.807010465E+01  4.750000000E+00  0.00000E+00  9.000E+00
      -5     1     1     2     0   503  1.000900894E+01  8.069797694E+00 -6.508495541E+00  1.517316411E+01  4.750000000E+00  0.00000E+00  9.000E+00
      21     1     1     2   511   502  2.087351787E+00 -1.441513414E+01 -5.798172364E+00  1.567711493E+01  2.920019320E-07  0.00000E+00  9.000E+00
#rwgt            1           9  0.26675531566630084                4     2544255           0
</event>
<event>
      6   9999  3.45752E-01  9.32642E+00 -1.00000E+00  1.90441E-01
      21    -1     0     0   512   502  0.000000000E+00  0.000000000E+00  5.196264416E+01  5.196264416E+01  0.000000000E+00  0.00000E+00  9.000E+00
      21    -1     0     0   502   503  0.000000000E+00  0.000000000E+00 -8.969307164E+02  8.969307164E+02  0.000000000E+00  0.00000E+00  9.000E+00
      25     1     1     2     0     0 -1.810187301E+01  1.130742325E+01 -8.291637847E+02  8.388040961E+02  1.249967768E+02  0.00000E+00  9.000E+00
       5     1     1     2   501     0  1.852498578E+00 -2.062360157E+00  5.637466648E+00  7.875824440E+00  4.750000000E+00  0.00000E+00  9.000E+00
      -5     1     1     2     0   503  2.549642683E+01 -1.045917920E+01 -5.805063311E+01  6.443524435E+01  4.750000000E+00  0.00000E+00  9.000E+00
      21     1     1     2   512   501 -9.247052401E+00  1.214116107E+00  3.660887887E+01  3.777819567E+01  2.286830675E-06  0.00000E+00  9.000E+00
#rwgt            1           9   5.7406079788116712E-005           4     2546212           0
</event>
<event>
      6   9999  3.45752E-01  4.95557E+01 -1.00000E+00  1.34995E-01
      21    -1     0     0   501   502  0.000000000E+00  0.000000000E+00  3.882182453E+01  3.882182453E+01  0.000000000E+00  0.00000E+00  9.000E+00
      21    -1     0     0   502   511  0.000000000E+00  0.000000000E+00 -4.943708908E+02  4.943708908E+02  0.000000000E+00  0.00000E+00  9.000E+00
      25     1     1     2     0     0 -4.618776465E+01 -1.496946434E+01 -1.304626822E+02  1.871129112E+02  1.250333380E+02  0.00000E+00  9.000E+00
       5     1     1     2   501     0 -2.233009381E+00 -2.457945753E-01  1.123319704E+00  5.373182765E+00  4.750000000E+00  0.00000E+00  9.000E+00
      -5     1     1     2     0   503 -4.196703625E-01  6.826106673E+00  2.173150333E+00  8.605634078E+00  4.750000000E+00  0.00000E+00  9.000E+00
      21     1     1     2   503   511  4.884044439E+01  8.389152238E+00 -3.283828542E+02  3.321009873E+02  6.607249480E-06  0.00000E+00  9.000E+00
#rwgt            1           9   1.2573898736697829E-004           4     2549137           0
</event>
<event>
      6   9999  3.45752E-01  3.10842E+00 -1.00000E+00  2.72940E-01
      21    -1     0     0   501   512  0.000000000E+00  0.000000000E+00  1.246514012E+02  1.246514012E+02  0.000000000E+00  0.00000E+00  9.000E+00
      21    -1     0     0   502   503  0.000000000E+00  0.000000000E+00 -7.214364342E+02  7.214364342E+02  0.000000000E+00  0.00000E+00  9.000E+00
      25     1     1     2     0     0  9.882586033E-01  4.034002156E+00 -6.340986673E+02  6.463158779E+02  1.250033772E+02  0.00000E+00  9.000E+00
       5     1     1     2   501     0  2.209039894E-01  8.388616251E-01 -2.493858644E+00  5.434548586E+00  4.750000000E+00  0.00000E+00  9.000E+00
      -5     1     1     2     0   503  1.254281753E+00 -2.977149847E+00 -7.713750479E+01  7.735110723E+01  4.750000000E+00  0.00000E+00  9.000E+00
      21     1     1     2   502   512 -2.463444345E+00 -1.895713933E+00  1.169449977E+02  1.169863017E+02  4.264961200E-06  0.00000E+00  9.000E+00
#rwgt            1           9   3.8317296427487859E-003           4     2550145           0
</event>
<event>
      6   9999  3.45752E-01  2.45256E+01 -1.00000E+00  1.53730E-01
      21    -1     0     0   501   502  0.000000000E+00  0.000000000E+00  5.786293320E+01  5.786293320E+01  0.000000000E+00  0.00000E+00  9.000E+00
      21    -1     0     0   511   503  0.000000000E+00  0.000000000E+00 -1.511438690E+03  1.511438690E+03  0.000000000E+00  0.00000E+00  9.000E+00
      25     1     1     2     0     0 -4.490685215E+01  1.461145453E+02 -6.741088163E+02  7.024341408E+02  1.249997611E+02  0.00000E+00  9.000E+00
       5     1     1     2   501     0  1.087709348E+00  1.213230360E-01  3.640468861E+01  3.672957506E+01  4.750000000E+00  0.00000E+00  9.000E+00
      -5     1     1     2     0   503  4.092192972E+01 -1.218819940E+02 -6.934184288E+02  7.052527948E+02  4.750000000E+00  0.00000E+00  9.000E+00
      21     1     1     2   511   502  2.897213082E+00 -2.435387432E+01 -1.224532003E+02  1.248851124E+02  3.015782986E-06  0.00000E+00  9.000E+00
#rwgt            1           9   1.4691175424904696E-004           4     2555502           0
</event>
<event>
      6   9999  3.45752E-01  9.79057E+00 -1.00000E+00  1.88167E-01
      21    -1     0     0   501   512  0.000000000E+00  0.000000000E+00  3.499264849E+00  3.499264849E+00  0.000000000E+00  0.00000E+00  9.000E+00
      21    -1     0     0   502   503  0.000000000E+00  0.000000000E+00 -4.512532936E+03  4.512532936E+03  0.000000000E+00  0.00000E+00  9.000E+00
      25     1     1     2     0     0 -1.903539715E+01  6.012537582E+00 -3.863178303E+03  3.865251493E+03  1.249960278E+02  0.00000E+00  9.000E+00
       5     1     1     2   501     0  1.255279137E+00 -4.526513111E+00 -4.042430289E+00  7.808251360E+00  4.750000000E+00  0.00000E+00  9.000E+00
      -5     1     1     2     0   503  2.296662882E+01 -9.789956904E+00 -5.599019717E+02  5.604784472E+02  4.750000000E+00  0.00000E+00  9.000E+00
      21     1     1     2   502   512 -5.186510812E+00  8.303932433E+00 -8.191096542E+01  8.249400854E+01  9.536743164E-07  0.00000E+00  9.000E+00
#rwgt            1           9   9.0614509017751557E-005           4     2557890           0
</event>
<event>
      6   9999  3.45752E-01  1.81942E+01 -1.00000E+00  1.63412E-01
      21    -1     0     0   501   502  0.000000000E+00  0.000000000E+00  2.572756842E+01  2.572756842E+01  0.000000000E+00  0.00000E+00  9.000E+00
      21    -1     0     0   511   503  0.000000000E+00  0.000000000E+00 -1.178436418E+03  1.178436418E+03  0.000000000E+00  0.00000E+00  9.000E+00
      25     1     1     2     0     0 -1.032007648E+01  5.451784454E+01 -3.027094495E+02  3.321708660E+02  1.250030960E+02  0.00000E+00  9.000E+00
       5     1     1     2   501     0  1.189507707E+00 -8.547458888E-01  7.796310475E+00  9.246105999E+00  4.750000000E+00  0.00000E+00  9.000E+00
      -5     1     1     2     0   503  1.540226147E+01 -7.074216058E+01 -7.408632574E+02  7.444075575E+02  4.750000000E+00  0.00000E+00  9.000E+00
      21     1     1     2   511   502 -6.271692698E+00  1.707906193E+01 -1.169324529E+02  1.183394568E+02  1.907348633E-06  0.00000E+00  9.000E+00
#rwgt            1           9   1.0185160239466709E-003           4     2560648           0
</event>
<event>
      6   9999  3.45752E-01  1.01267E+01 -1.00000E+00  1.86620E-01
      21    -1     0     0   512   503  0.000000000E+00  0.000000000E+00  1.318612674E+01  1.318612674E+01  0.000000000E+00  0.00000E+00  9.000E+00
      21    -1     0     0   501   502  0.000000000E+00  0.000000000E+00 -7.902402937E+02  7.902402937E+02  0.000000000E+00  0.00000E+00  9.000E+00
      25     1     1     2     0     0 -5.519925743E+00 -4.438508110E+00 -5.275294589E+02  5.421829067E+02  1.249992177E+02  0.00000E+00  9.000E+00
       5     1     1     2   501     0 -3.033609483E+00  4.058472643E+00 -2.086109919E+02  2.087265734E+02  4.750000000E+00  0.00000E+00  9.000E+00
      -5     1     1     2     0   503  1.864278344E+01 -4.898682973E-01 -3.691339499E+01  4.162877100E+01  4.750000000E+00  0.00000E+00  9.000E+00
      21     1     1     2   512   502 -1.008924821E+01  8.699037641E-01 -4.000321183E+00  1.088816934E+01  2.731427965E-07  0.00000E+00  9.000E+00
#rwgt            1           9   1.1045502215271241                4     2562751           0
</event>
<event>
      6   9999  3.45752E-01  3.08089E+00 -1.00000E+00  2.73924E-01
      21    -1     0     0   501   511  0.000000000E+00  0.000000000E+00  2.677462676E+01  2.677462676E+01  0.000000000E+00  0.00000E+00  9.000E+00
      21    -1     0     0   502   503  0.000000000E+00  0.000000000E+00 -3.582904311E+02  3.582904311E+02  0.000000000E+00  0.00000E+00  9.000E+00
      25     1     1     2     0     0  4.052219186E+00 -7.051975164E+00 -3.202435004E+02  3.438695941E+02  1.249969894E+02  0.00000E+00  9.000E+00
       5     1     1     2   501     0  1.167200458E+00  7.591167965E-01  4.495342134E+00  6.686495055E+00  4.750000000E+00  0.00000E+00  9.000E+00
      -5     1     1     2     0   503 -2.601595149E+00  7.917318850E+00 -2.393189534E+01  2.578275295E+01  4.750000000E+00  0.00000E+00  9.000E+00
      21     1     1     2   502   511 -2.617824494E+00 -1.624460482E+00  8.164249224E+00  8.726215808E+00  2.665600750E-07  0.00000E+00  9.000E+00
#rwgt            1           9   3.3900075444036934E-004           4     2565436           0
</event>
<event>
      6   9999  3.45752E-01  6.37226E+00 -1.00000E+00  2.10480E-01
      21    -1     0     0   501   502  0.000000000E+00  0.000000000E+00  7.351153580E+00  7.351153580E+00  0.000000000E+00  0.00000E+00  9.000E+00
      21    -1     0     0   512   503  0.000000000E+00  0.000000000E+00 -9.504642320E+02  9.504642320E+02  0.000000000E+00  0.00000E+00  9.000E+00
      25     1     1     2     0     0  7.612625376E+00 -1.865248514E+01 -6.147528371E+02  6.276554840E+02  1.249979542E+02  0.00000E+00  9.000E+00
       5     1     1     2   501     0 -4.163559476E+00  6.494248285E+00 -3.966631172E+01  4.068770421E+01  4.750000000E+00  0.00000E+00  9.000E+00
      -5     1     1     2     0   503  8.868902906E-02  6.858235395E+00 -4.985391368E+01  5.054719050E+01  4.750000000E+00  0.00000E+00  9.000E+00
      21     1     1     2   512   502 -3.537754930E+00  5.300001458E+00 -2.388400159E+02  2.389250069E+02  3.814697266E-06  0.00000E+00  9.000E+00
#rwgt            1           9  0.95863994434488797                4     2570399           0
</event>
<event>
      6   9999  3.45752E-01  1.66458E+01 -1.00000E+00  1.66544E-01
      21    -1     0     0   511   502  0.000000000E+00  0.000000000E+00  3.556142849E+01  3.556142849E+01  0.000000000E+00  0.00000E+00  9.000E+00
      21    -1     0     0   502   503  0.000000000E+00  0.000000000E+00 -1.143024314E+03  1.143024314E+03  0.000000000E+00  0.00000E+00  9.000E+00
      25     1     1     2     0     0  8.838957337E+01 -6.559237152E+01 -3.496329659E+02  3.872773260E+02  1.250017619E+02  0.00000E+00  9.000E+00
       5     1     1     2   501     0  6.367999005E-01 -1.115338403E+00  7.270274867E+00  8.778888911E+00  4.750000000E+00  0.00000E+00  9.000E+00
      -5     1     1     2     0   503 -7.247286643E+01  6.845856835E+01 -7.578150771E+02  7.643593040E+02  4.750000000E+00  0.00000E+00  9.000E+00
      21     1     1     2   511   501 -1.655350684E+01 -1.750858429E+00 -7.285117436E+00  1.817022372E+01  5.654593098E-07  0.00000E+00  9.000E+00
#rwgt            1           9   3.2657884214951495E-004           4     2573231           0
</event>
<event>
      6   9999  3.45752E-01  7.94057E+00 -1.00000E+00  1.98399E-01
      21    -1     0     0   501   502  0.000000000E+00  0.000000000E+00  2.670637735E+01  2.670637735E+01  0.000000000E+00  0.00000E+00  9.000E+00
      21    -1     0     0   502   512  0.000000000E+00  0.000000000E+00 -1.032685056E+03  1.032685056E+03  0.000000000E+00  0.00000E+00  9.000E+00
      25     1     1     2     0     0  8.402671390E+01  2.050668621E+01 -2.859042475E+02  3.238014971E+02  1.250006320E+02  0.00000E+00  9.000E+00
       5     1     1     2   501     0  1.658454038E-01  1.427908209E+00  3.925730808E+00  6.327739638E+00  4.750000000E+00  0.00000E+00  9.000E+00
      -5     1     1     2     0   503 -7.728458135E+01 -1.801891868E+01 -6.610073388E+02  6.657708708E+02  4.750000000E+00  0.00000E+00  9.000E+00
      21     1     1     2   503   512 -6.907977958E+00 -3.915675746E+00 -6.299282322E+01  6.349132582E+01  0.000000000E+00  0.00000E+00  9.000E+00
#rwgt            1           9   7.2316344499095617E-004           4     2576365           0
</event>
<event>
      6   9999  3.45752E-01  9.03805E+00 -1.00000E+00  1.91942E-01
      21    -1     0     0   511   502  0.000000000E+00  0.000000000E+00  1.146929557E+02  1.146929557E+02  0.000000000E+00  0.00000E+00  9.000E+00
      21    -1     0     0   502   503  0.000000000E+00  0.000000000E+00 -5.624904840E+02  5.624904840E+02  0.000000000E+00  0.00000E+00  9.000E+00
      25     1     1     2     0     0  3.177837429E+00 -7.533167407E+00 -5.371826234E+02  5.515947573E+02  1.249990323E+02  0.00000E+00  9.000E+00
       5     1     1     2   501     0 -3.137282652E+00  4.628071715E+00  8.701297671E+01  8.732171669E+01  4.750000000E+00  0.00000E+00  9.000E+00
      -5     1     1     2     0   503  6.692580194E-02 -6.132319869E+00 -1.600603126E+01  1.778666250E+01  4.750000000E+00  0.00000E+00  9.000E+00
      21     1     1     2   511   501 -1.074805786E-01  9.037415561E+00  1.837814968E+01  2.048030316E+01  3.371747881E-07  0.00000E+00  9.000E+00
#rwgt            1           9   24.418809556596941                4     2580430           0
</event>
<event>
      6   9999  3.45752E-01  4.23931E+00 -1.00000E+00  2.42740E-01
      21    -1     0     0   512   502  0.000000000E+00  0.000000000E+00  5.275207237E+02  5.275207237E+02  0.000000000E+00  0.00000E+00  9.000E+00
      21    -1     0     0   502   503  0.000000000E+00  0.000000000E+00 -5.105266659E+02  5.105266659E+02  0.000000000E+00  0.00000E+00  9.000E+00
      25     1     1     2     0     0 -3.673369767E+00  1.478161608E+00 -4.825296211E+02  4.984737544E+02  1.250022802E+02  0.00000E+00  9.000E+00
       5     1     1     2   501     0  1.401776363E+00  1.298199193E+00  5.249891553E+00  7.333086624E+00  4.750000000E+00  0.00000E+00  9.000E+00
      -5     1     1     2     0   503  2.217377879E-01  9.344129866E-01 -1.866519782E+01  1.928404535E+01  4.750000000E+00  0.00000E+00  9.000E+00
      21     1     1     2   512   501  2.049855616E+00 -3.710773787E+00  5.129389851E+02  5.129565032E+02  0.000000000E+00  0.00000E+00  9.000E+00
#rwgt            1           9   3.5365147048673769E-003           4     2584348           0
</event>
<event>
      6   9999  3.45752E-01  1.67429E+01 -1.00000E+00  1.66335E-01
      21    -1     0     0   501   511  0.000000000E+00  0.000000000E+00  2.252333119E+02  2.252333119E+02  0.000000000E+00  0.00000E+00  9.000E+00
      21    -1     0     0   502   503  0.000000000E+00  0.000000000E+00 -5.169999608E+02  5.169999608E+02  0.000000000E+00  0.00000E+00  9.000E+00
      25     1     1     2     0     0 -1.508835993E+00  8.682026094E+01 -1.700926915E+02  2.282449375E+02  1.249967739E+02  0.00000E+00  9.000E+00
       5     1     1     2   501     0  1.465337812E+01  5.412324457E+00  1.682628394E+02  1.690531288E+02  4.750000000E+00  0.00000E+00  9.000E+00
      -5     1     1     2     0   503  3.084603979E+00 -8.811689908E+01 -3.079402971E+02  3.203496399E+02  4.750000000E+00  0.00000E+00  9.000E+00
      21     1     1     2   502   511 -1.622914611E+01 -4.115686310E+00  1.800350035E+01  2.458556654E+01  0.000000000E+00  0.00000E+00  9.000E+00
#rwgt            1           9   55.163656957921603                4     2588543           0
</event>
<event>
      6   9999  3.45752E-01  2.52887E+01 -1.00000E+00  1.52803E-01
       2    -1     0     0   501     0  0.000000000E+00  0.000000000E+00  5.673255172E+02  5.673255172E+02  0.000000000E+00  0.00000E+00  9.000E+00
      21    -1     0     0   502   503  0.000000000E+00  0.000000000E+00 -2.354732983E+02  2.354732983E+02  0.000000000E+00  0.00000E+00  9.000E+00
      25     1     1     2     0     0 -2.133680321E+01 -4.056741873E+01  1.580945822E+01  1.341311363E+02  1.250609776E+02  0.00000E+00  9.000E+00
       5     1     1     2   501     0  1.246821773E+00  3.923994268E+00  4.889092681E+01  4.929338211E+01  4.750000000E+00  0.00000E+00  9.000E+00
      -5     1     1     2     0   503  8.996728515E+00  5.936914892E+01 -1.705851621E+02  1.809074266E+02  4.750000000E+00  0.00000E+00  9.000E+00
       2     1     1     2   502     0  1.109325292E+01 -2.272572446E+01  4.377369960E+02  4.384668704E+02  5.394796609E-06  0.00000E+00  9.000E+00
#rwgt            1           9   2.3807619805653942E-004           4     2591903           0
</event>
<event>
      6   9999 -3.45752E-01  3.64943E+01 -1.00000E+00  1.42536E-01
      21    -1     0     0   501   511  0.000000000E+00  0.000000000E+00  1.865572594E+01  1.865572594E+01  0.000000000E+00  0.00000E+00  9.000E+00
      21    -1     0     0   502   503  0.000000000E+00  0.000000000E+00 -1.043350845E+03  1.043350845E+03  0.000000000E+00  0.00000E+00  9.000E+00
      25     1     1     2     0     0  1.421290546E+01 -7.553846742E+01 -6.805191983E+02  6.961607487E+02  1.250013683E+02  0.00000E+00  9.000E+00
       5     1     1     2   501     0  3.812322458E+01  4.148649753E+01 -1.323299119E+02  1.439037102E+02  4.750000000E+00  0.00000E+00  9.000E+00
      -5     1     1     2     0   503 -1.737181832E+01  2.359588170E+01 -9.456603701E+01  9.911530437E+01  4.750000000E+00  0.00000E+00  9.000E+00
      21     1     1     2   502   511 -3.496431172E+01  1.045608819E+01 -1.172799718E+02  1.228268076E+02  1.907348633E-06  0.00000E+00  9.000E+00
#rwgt            1           9  -1.1819957867584363                4     2593957           0
</event>
<event>
      6   9999 -3.45752E-01  9.37012E+00 -1.00000E+00  1.90220E-01
      21    -1     0     0   501   502  0.000000000E+00  0.000000000E+00  7.825395269E+00  7.825395269E+00  0.000000000E+00  0.00000E+00  9.000E+00
      21    -1     0     0   512   503  0.000000000E+00  0.000000000E+00 -8.403999159E+02  8.403999159E+02  0.000000000E+00  0.00000E+00  9.000E+00
      25     1     1     2     0     0 -7.407644288E+00  7.241050781E+00 -6.984315195E+02  7.096036831E+02  1.249939741E+02  0.00000E+00  9.000E+00
       5     1     1     2   501     0 -8.322908818E-01  1.461578207E+00 -2.212562855E+00  5.503349285E+00  4.750000000E+00  0.00000E+00  9.000E+00
      -5     1     1     2     0   503  8.317374972E-01 -2.965223206E+00 -1.969649728E+01  2.049387325E+01  4.750000000E+00  0.00000E+00  9.000E+00
      21     1     1     2   512   502  7.408197673E+00 -5.737405782E+00 -1.122339410E+02  1.126244056E+02  2.336015456E-06  0.00000E+00  9.000E+00
#rwgt            1           9  -6.9893684350368600E-004           4     2595159           0
</event>
<event>
      6   9999  3.45752E-01  6.64370E+00 -1.00000E+00  2.08073E-01
       2    -1     0     0   501     0  0.000000000E+00  0.000000000E+00  1.601474948E+02  1.601474948E+02  0.000000000E+00  0.00000E+00  9.000E+00
      21    -1     0     0   502   503  0.000000000E+00  0.000000000E+00 -7.651825170E+02  7.651825170E+02  0.000000000E+00  0.00000E+00  9.000E+00
      25     1     1     2     0     0  2.691234156E-01  2.973141753E+00 -6.330644571E+02  6.452937592E+02  1.249980673E+02  0.00000E+00  9.000E+00
       5     1     1     2   501     0 -1.676815909E+00  3.375949263E-01  7.084107103E-01  5.098041552E+00  4.750000000E+00  0.00000E+00  9.000E+00
      -5     1     1     2     0   503 -4.123915251E+00  3.689464372E-01 -1.236553178E+02  1.238157620E+02  4.750000000E+00  0.00000E+00  9.000E+00
       2     1     1     2   502     0  5.531607745E+00 -3.679683117E+00  1.509763420E+02  1.511224490E+02  4.264961200E-06  0.00000E+00  9.000E+00
#rwgt            1           9   3.6742851267649711E-004           4     2597405           0
</event>
<event>
      6   9999  3.45752E-01  5.12912E+00 -1.00000E+00  2.24007E-01
      21    -1     0     0   501   502  0.000000000E+00  0.000000000E+00  4.449738162E+02  4.449738162E+02  0.000000000E+00  0.00000E+00  9.000E+00
      21    -1     0     0   502   511  0.000000000E+00  0.000000000E+00 -8.078613897E+01  8.078613897E+01  0.000000000E+00  0.00000E+00  9.000E+00
      25     1     1     2     0     0  1.092999349E+01 -8.409294768E+00  2.781976302E+02  3.053009864E+02  1.249983594E+02  0.00000E+00  9.000E+00
       5     1     1     2   501     0  6.847513570E-02  1.579716663E-01  8.228106681E+01  8.241823888E+01  4.750000000E+00  0.00000E+00  9.000E+00
      -5     1     1     2     0   503 -6.040910147E+00  6.935856972E+00  7.039785848E+01  7.115489924E+01  4.750000000E+00  0.00000E+00  9.000E+00
      21     1     1     2   503   511 -4.957558475E+00  1.315466129E+00 -6.668887833E+01  6.688583057E+01  2.523185073E-06  0.00000E+00  9.000E+00
#rwgt            1           9   1.4362905554171065E-004           4     2600700           0
</event>
<event>
      6   9999  3.45752E-01  8.21619E+00 -1.00000E+00  1.96654E-01
      21    -1     0     0   502   512  0.000000000E+00  0.000000000E+00  4.158312451E+01  4.158312451E+01  0.000000000E+00  0.00000E+00  9.000E+00
      21    -1     0     0   501   502  0.000000000E+00  0.000000000E+00 -1.233736344E+03  1.233736344E+03  0.000000000E+00  0.00000E+00  9.000E+00
      25     1     1     2     0     0 -1.132920237E+01  2.635743520E+00 -1.096895152E+02  1.667180367E+02  1.250112637E+02  0.00000E+00  9.000E+00
       5     1     1     2   501     0  1.235239029E+01 -8.453477107E-01 -1.080425421E+03  1.080506801E+03  4.750000000E+00  0.00000E+00  9.000E+00
      -5     1     1     2     0   503  2.259586371E-01  6.330279836E+00 -1.249740429E+01  1.479429330E+01  4.750000000E+00  0.00000E+00  9.000E+00
      21     1     1     2   503   512 -1.249146550E+00 -8.120675646E+00  1.045912101E+01  1.330033655E+01  7.444617746E-07  0.00000E+00  9.000E+00
#rwgt            1           9  0.64479863595051357                4     2604519           0
</event>
<event>
      6   9999  3.45752E-01  9.84623E+00 -1.00000E+00  1.87905E-01
      21    -1     0     0   501   511  0.000000000E+00  0.000000000E+00  2.664557437E+01  2.664557437E+01  0.000000000E+00  0.00000E+00  9.000E+00
      21    -1     0     0   502   503  0.000000000E+00  0.000000000E+00 -1.025211938E+03  1.025211938E+03  0.000000000E+00  0.00000E+00  9.000E+00
      25     1     1     2     0     0  3.984640988E+01 -5.103026967E+01 -5.367193123E+02  5.548716560E+02  1.249924382E+02  0.00000E+00  9.000E+00
       5     1     1     2   501     0  2.571276681E-01  8.433293781E-01  1.061280383E+01  1.166067855E+01  4.750000000E+00  0.00000E+00  9.000E+00
      -5     1     1     2     0   503 -4.334300499E+01  4.088887325E+01 -4.716751714E+02  4.754477320E+02  4.750000000E+00  0.00000E+00  9.000E+00
      21     1     1     2   502   511  3.239467443E+00  9.298067045E+00 -7.846833210E-01  9.877445418E+00  1.281846354E-07  0.00000E+00  9.000E+00
#rwgt            1           9   1.6847436881345854E-003           4     2608662           0
</event>
<event>
      6   9999  3.45752E-01  2.37926E+01 -1.00000E+00  1.54660E-01
      21    -1     0     0   501   502  0.000000000E+00  0.000000000E+00  1.415531884E+02  1.415531884E+02  0.000000000E+00  0.00000E+00  9.000E+00
      21    -1     0     0   502   512  0.000000000E+00  0.000000000E+00 -5.595798459E+02  5.595798459E+02  0.000000000E+00  0.00000E+00  9.000E+00
      25     1     1     2     0     0  2.223270969E+01 -8.574804514E+00 -4.569624740E+02  4.743496082E+02  1.250001103E+02  0.00000E+00  9.000E+00
       5     1     1     2   501     0 -1.987009513E+00 -7.949509235E-01  1.305066042E+02  1.306105524E+02  4.750000000E+00  0.00000E+00  9.000E+00
      -5     1     1     2     0   503  5.091372392E-01 -2.263083991E+00 -2.272637542E+01  2.333305401E+01  4.750000000E+00  0.00000E+00  9.000E+00
      21     1     1     2   503   512 -2.075483741E+01  1.163283943E+01 -6.884441228E+01  7.283981968E+01  0.000000000E+00  0.00000E+00  9.000E+00
#rwgt            1           9  0.46181364130813912                4     2611584           0
</event>
<event>
      6   9999  3.45752E-01  6.66269E+00 -1.00000E+00  2.07911E-01
      21    -1     0     0   501   502  0.000000000E+00  0.000000000E+00  1.243589324E+02  1.243589324E+02  0.000000000E+00  0.00000E+00  9.000E+00
      21    -1     0     0   502   511  0.000000000E+00  0.000000000E+00 -2.119239007E+02  2.119239007E+02  0.000000000E+00  0.00000E+00  9.000E+00
      25     1     1     2     0     0 -3.596984329E+01 -2.853223826E+01 -1.134914688E+02  1.749567127E+02  1.249864776E+02  0.00000E+00  9.000E+00
       5     1     1     2   501     0 -1.567291718E+00  1.028694221E+00  2.662263625E+01  2.710796702E+01  4.750000000E+00  0.00000E+00  9.000E+00
      -5     1     1     2     0   503  3.692115301E+01  3.413769665E+01  5.698857305E+01  7.614994307E+01  4.750000000E+00  0.00000E+00  9.000E+00
      21     1     1     2   503   511  6.159820012E-01 -6.634152616E+00 -5.768470882E+01  5.806821029E+01  6.743495762E-07  0.00000E+00  9.000E+00
#rwgt            1           9   5.3503323805785725E-004           4     2613698           0
</event>
<event>
      6   9999  3.45752E-01  4.85683E+01 -1.00000E+00  1.35466E-01
      21    -1     0     0   501   502  0.000000000E+00  0.000000000E+00  2.402715986E+02  2.402715986E+02  0.000000000E+00  0.00000E+00  9.000E+00
       2    -1     0     0   502     0  0.000000000E+00  0.000000000E+00 -1.643739229E+03  1.643739229E+03  0.000000000E+00  0.00000E+00  9.000E+00
      25     1     1     2     0     0  4.722328806E+00  2.835566519E+01 -5.512562744E+02  5.659812319E+02  1.249997223E+02  0.00000E+00  9.000E+00
       5     1     1     2   501     0 -3.665630238E+00 -1.698820176E+00  2.255690299E+02  2.256552073E+02  4.750000000E+00  0.00000E+00  9.000E+00
      -5     1     1     2     0   503 -4.913175327E+01 -1.975230644E+01 -9.885637738E+01  1.122462856E+02  4.750000000E+00  0.00000E+00  9.000E+00
       2     1     1     2   503     0  4.807505471E+01 -6.904538576E+00 -9.789240087E+02  9.801281030E+02  0.000000000E+00  0.00000E+00  9.000E+00
#rwgt            1           9   8.8826458957190324E-002           4     2618047           0
</event>
<event>
      6   9999 -3.45752E-01  6.07288E+00 -1.00000E+00  2.13330E-01
      21    -1     0     0   501   502  0.000000000E+00  0.000000000E+00  2.438394134E+01  2.438394134E+01  0.000000000E+00  0.00000E+00  9.000E+00
      21    -1     0     0   511   503  0.000000000E+00  0.000000000E+00 -1.128220686E+03  1.128220686E+03  0.000000000E+00  0.00000E+00  9.000E+00
      25     1     1     2     0     0  2.803321418E+01 -3.232093159E+01 -4.301500745E+02  4.499819488E+02  1.249966560E+02  0.00000E+00  9.000E+00
       5     1     1     2   501     0  9.022426580E-01 -4.565256162E+00  1.282719371E+01  1.444835645E+01  4.750000000E+00  0.00000E+00  9.000E+00
      -5     1     1     2     0   503 -2.361612912E+01  3.395623920E+01 -6.108675173E+02  6.122846021E+02  4.750000000E+00  0.00000E+00  9.000E+00
      21     1     1     2   511   502 -5.319327718E+00  2.929948548E+00 -7.564634689E+01  7.588972028E+01  9.536743164E-07  0.00000E+00  9.000E+00
#rwgt            1           9  -1.5638544809432685E-002           4     2619729           0
</event>
<event>
      6   9999  3.45752E-01  7.73650E+00 -1.00000E+00  1.99753E-01
       1    -1     0     0   501     0  0.000000000E+00  0.000000000E+00  3.517897802E+02  3.517897802E+02  0.000000000E+00  0.00000E+00  9.000E+00
      21    -1     0     0   502   503  0.000000000E+00  0.000000000E+00 -9.726836083E+02  9.726836083E+02  0.000000000E+00  0.00000E+00  9.000E+00
      25     1     1     2     0     0 -4.812308732E+00  5.310305593E+00 -9.189980829E+02  9.274875739E+02  1.249974627E+02  0.00000E+00  9.000E+00
       5     1     1     2   501     0 -2.004494085E-01  8.017396821E-02 -1.740581030E+01  1.804359554E+01  4.750000000E+00  0.00000E+00  9.000E+00
      -5     1     1     2     0   503 -8.371824137E-01 -3.277072467E-01 -3.148849073E+01  3.185742951E+01  4.750000000E+00  0.00000E+00  9.000E+00
       1     1     1     2   502     0  5.849940554E+00 -5.062772314E+00  3.469985558E+02  3.470847897E+02  3.814697266E-06  0.00000E+00  9.000E+00
#rwgt            1           9   4.6117537575795474E-003           4     2624504           0
</event>
<event>
      6   9999  3.45752E-01  4.81277E+00 -1.00000E+00  2.32317E-01
      21    -1     0     0   501   511  0.000000000E+00  0.000000000E+00  7.540744514E+00  7.540744514E+00  0.000000000E+00  0.00000E+00  9.000E+00
      21    -1     0     0   502   503  0.000000000E+00  0.000000000E+00 -6.955899598E+02  6.955899598E+02  0.000000000E+00  0.00000E+00  9.000E+00
      25     1     1     2     0     0  6.750525461E-01 -3.971282321E+00 -6.112866935E+02  6.239492234E+02  1.249999397E+02  0.00000E+00  9.000E+00
       5     1     1     2   501     0  4.305668098E-01 -3.550239254E-01 -7.365593560E+00  8.782135177E+00  4.750000000E+00  0.00000E+00  9.000E+00
      -5     1     1     2     0   503  1.583188831E+00  3.346801003E-01 -5.480424696E+01  5.503350327E+01  4.750000000E+00  0.00000E+00  9.000E+00
      21     1     1     2   502   511 -2.688808186E+00  3.991626146E+00 -1.459268127E+01  1.536584249E+01  2.920019320E-07  0.00000E+00  9.000E+00
#rwgt            1           9   2.7836611314726217E-004           4     2627202           0
</event>
<event>
      6   9999  3.45752E-01  1.52496E+01 -1.00000E+00  1.69753E-01
      21    -1     0     0   502   503  0.000000000E+00  0.000000000E+00  8.588400633E+01  8.588400633E+01  0.000000000E+00  0.00000E+00  9.000E+00
       3    -1     0     0   501     0  0.000000000E+00  0.000000000E+00 -5.753804289E+02  5.753804289E+02  0.000000000E+00  0.00000E+00  9.000E+00
      25     1     1     2     0     0 -1.206996985E+02  4.934851638E+01 -7.948029577E+01  1.973442098E+02  1.249957057E+02  0.00000E+00  9.000E+00
       5     1     1     2   501     0  4.553002394E+01 -9.963491445E+01 -2.091552702E+02  2.361537398E+02  4.750000000E+00  0.00000E+00  9.000E+00
      -5     1     1     2     0   503  6.124717762E+01  4.406429461E+01 -9.795123986E+01  1.237331270E+02  4.750000000E+00  0.00000E+00  9.000E+00
       3     1     1     2   502     0  1.392249695E+01  6.222103453E+00 -1.029096168E+02  1.040333587E+02  1.348699152E-06  0.00000E+00  9.000E+00
#rwgt            1           9   2.1547803817325656E-002           4     2631333           0
</event>
<event>
      6   9999 -3.45752E-01  4.45141E+00 -1.00000E+00  2.38615E-01
      21    -1     0     0   501   502  0.000000000E+00  0.000000000E+00  1.232849517E+01  1.232849517E+01  0.000000000E+00  0.00000E+00  9.000E+00
      21    -1     0     0   511   503  0.000000000E+00  0.000000000E+00 -9.432656803E+02  9.432656803E+02  0.000000000E+00  0.00000E+00  9.000E+00
      25     1     1     2     0     0 -5.945239531E+00  7.445644163E+00 -7.829540412E+02  7.929254624E+02  1.249918991E+02  0.00000E+00  9.000E+00
       5     1     1     2   501     0 -1.248727710E+00 -3.822591567E-01  5.574055467E+00  7.438954047E+00  4.750000000E+00  0.00000E+00  9.000E+00
      -5     1     1     2     0   503  4.635398169E+00 -3.420749495E+00 -1.661957354E+01  1.821980154E+01  4.750000000E+00  0.00000E+00  9.000E+00
      21     1     1     2   511   502  2.558569071E+00 -3.642635511E+00 -1.369376258E+02  1.370099574E+02  1.907348633E-06  0.00000E+00  9.000E+00
#rwgt            1           9  -3.5375320666942886E-004           4     2634568           0
</event>
<event>
      6   9999  3.45752E-01  1.81664E+01 -1.00000E+00  1.63465E-01
      21    -1     0     0   501   512  0.000000000E+00  0.000000000E+00  9.364594816E+00  9.364594816E+00  0.000000000E+00  0.00000E+00  9.000E+00
      21    -1     0     0   502   503  0.000000000E+00  0.000000000E+00 -1.067672829E+03  1.067672829E+03  0.000000000E+00  0.00000E+00  9.000E+00
      25     1     1     2     0     0 -1.515207371E+01 -8.747800615E+00 -1.011848839E+03  1.019690393E+03  1.249972607E+02  0.00000E+00  9.000E+00
       5     1     1     2   501     0 -1.513274075E+00 -6.971162739E-01 -7.812039999E+00  9.293354533E+00  4.750000000E+00  0.00000E+00  9.000E+00
      -5     1     1     2     0   503  2.043050975E+00 -1.335038467E+00 -2.436989650E+01  2.494816107E+01  4.750000000E+00  0.00000E+00  9.000E+00
      21     1     1     2   502   512  1.462229681E+01  1.077995536E+01 -1.427745829E+01  2.310551486E+01  1.118282261E-06  0.00000E+00  9.000E+00
#rwgt            1           9   9.5145505325777230E-002           4     2638897           0
</event>
<event>
      6   9999  3.45752E-01  2.98564E+02 -1.00000E+00  1.03195E-01
      21    -1     0     0   511   502  0.000000000E+00  0.000000000E+00  3.236728407E+01  3.236728407E+01  0.000000000E+00  0.00000E+00  9.000E+00
       1    -1     0     0   501     0  0.000000000E+00  0.000000000E+00 -4.329307176E+03  4.329307176E+03  0.000000000E+00  0.00000E+00  9.000E+00
      25     1     1     2     0     0  2.755010580E+02  1.394699930E+02 -1.160119847E+03  1.207003177E+03  1.250035978E+02  0.00000E+00  9.000E+00
       5     1     1     2   501     0 -2.308255736E+00 -2.539368859E+00 -1.670733582E+02  1.671760927E+02  4.750000000E+00  0.00000E+00  9.000E+00
      -5     1     1     2     0   502 -8.196231187E+00  6.086432831E-01 -1.533131033E+01  1.803219978E+01  4.750000000E+00  0.00000E+00  9.000E+00
       1     1     1     2   511     0 -2.649965710E+02 -1.375392674E+02 -2.954415376E+03  2.969462990E+03  0.000000000E+00  0.00000E+00  9.000E+00
#rwgt            1           1   4.1631187047299858E-006           4     2640789           0
</event>
<event>
      6   9999 -3.45752E-01  3.24199E+01 -1.00000E+00  1.45691E-01
      21    -1     0     0   512   502  0.000000000E+00  0.000000000E+00  3.816910613E+01  3.816910613E+01  0.000000000E+00  0.00000E+00  9.000E+00
      21    -1     0     0   502   503  0.000000000E+00  0.000000000E+00 -9.617611812E+02  9.617611812E+02  0.000000000E+00  0.00000E+00  9.000E+00
      25     1     1     2     0     0 -1.793067603E+01 -1.028103497E+02 -6.920494164E+02  7.109493991E+02  1.250007045E+02  0.00000E+00  9.000E+00
       5     1     1     2   501     0 -2.356892709E+00 -5.412898972E-01  1.210111515E+01  1.322298854E+01  4.750000000E+00  0.00000E+00  9.000E+00
      -5     1     1     2     0   503 -1.105841873E+01  9.507651350E+01 -1.670955671E+02  1.926274204E+02  4.750000000E+00  0.00000E+00  9.000E+00
      21     1     1     2   512   501  3.134598747E+01  8.275126126E+00 -7.654820660E+01  8.313047923E+01  9.536743164E-07  0.00000E+00  9.000E+00
#rwgt            1           9  -1.5432540307381399E-004           4     2641330           0
</event>
<event>
      6   9999  3.45752E-01  6.44908E+00 -1.00000E+00  2.09783E-01
      21    -1     0     0   501   502  0.000000000E+00  0.000000000E+00  9.677750328E+02  9.677750328E+02  0.000000000E+00  0.00000E+00  9.000E+00
      21    -1     0     0   511   503  0.000000000E+00  0.000000000E+00 -1.191197085E+01  1.191197085E+01  0.000000000E+00  0.00000E+00  9.000E+00
      25     1     1     2     0     0 -1.547679043E+00 -1.299228861E+00  3.699062420E+02  3.904603785E+02  1.249983841E+02  0.00000E+00  9.000E+00
       5     1     1     2   501     0  7.707222225E-05  4.535251244E+00  5.578774353E+02  5.579160903E+02  4.750000000E+00  0.00000E+00  9.000E+00
      -5     1     1     2     0   503  4.840773969E+00  2.308848582E+00  1.764602440E+01  1.904490881E+01  4.750000000E+00  0.00000E+00  9.000E+00
      21     1     1     2   511   502 -3.293171998E+00 -5.544870965E+00  1.043336030E+01  1.226562607E+01  2.064765462E-07  0.00000E+00  9.000E+00
#rwgt            1           9   6.4535977113355705E-004           4     2642889           0
</event>
<event>
      6   9999  3.45752E-01  1.22024E+01 -1.00000E+00  1.78525E-01
      21    -1     0     0   501   502  0.000000000E+00  0.000000000E+00  1.960122519E+01  1.960122519E+01  0.000000000E+00  0.00000E+00  9.000E+00
      21    -1     0     0   512   503  0.000000000E+00  0.000000000E+00 -2.216376050E+03  2.216376050E+03  0.000000000E+00  0.00000E+00  9.000E+00
      25     1     1     2     0     0 -3.434504293E+01  4.719351977E+01 -9.826685886E+02  9.923037997E+02  1.249898618E+02  0.00000E+00  9.000E+00
       5     1     1     2   501     0 -6.193604073E+00 -7.491899555E-01  1.290393247E+01  1.509953609E+01  4.750000000E+00  0.00000E+00  9.000E+00
      -5     1     1     2     0   503  3.155199431E+01 -3.818975746E+01 -9.866068401E+02  9.878611266E+02  4.750000000E+00  0.00000E+00  9.000E+00
      21     1     1     2   512   502  8.986652687E+00 -8.254572352E+00 -2.404033282E+02  2.407128125E+02  3.814697266E-06  0.00000E+00  9.000E+00
#rwgt            1           9   2.4860376874252219E-002           4     2646417           0
</event>
<event>
      6   9999  3.45752E-01  8.30634E+00 -1.00000E+00  1.96103E-01
      21    -1     0     0   501   502  0.000000000E+00  0.000000000E+00  2.045129702E+02  2.045129702E+02  0.000000000E+00  0.00000E+00  9.000E+00
      21    -1     0     0   511   503  0.000000000E+00  0.000000000E+00 -3.681241659E+01  3.681241659E+01  0.000000000E+00  0.00000E+00  9.000E+00
      25     1     1     2     0     0 -3.991429844E+00  7.160616510E+00  1.002010715E+02  1.604158007E+02  1.250030737E+02  0.00000E+00  9.000E+00
       5     1     1     2   501     0 -3.922373804E-01 -1.504142124E-01  6.629383028E+01  6.646511045E+01  4.750000000E+00  0.00000E+00  9.000E+00
      -5     1     1     2     0   503 -2.171553013E-01 -9.444592148E-02  3.408273122E+00  5.851059915E+00  4.750000000E+00  0.00000E+00  9.000E+00
      21     1     1     2   511   502  4.600822526E+00 -6.915756376E+00 -2.202621283E+00  8.593415775E+00  1.032382731E-07  0.00000E+00  9.000E+00
#rwgt            1           9   3.9320492233932388E-003           4     2649860           0
</event>
<event>
      6   9999 -3.45752E-01  6.64327E+00 -1.00000E+00  2.08077E-01
      21    -1     0     0   501   502  0.000000000E+00  0.000000000E+00  4.665466369E+01  4.665466369E+01  0.000000000E+00  0.00000E+00  9.000E+00
      21    -1     0     0   512   503  0.000000000E+00  0.000000000E+00 -1.676659064E+03  1.676659064E+03  0.000000000E+00  0.00000E+00  9.000E+00
      25     1     1     2     0     0 -1.492836390E+00  2.365579759E+01 -1.037253254E+03  1.045026904E+03  1.250003725E+02  0.00000E+00  9.000E+00
       5     1     1     2   501     0  5.236899112E+00 -1.252841303E+01  4.117193690E+01  4.361280928E+01  4.750000000E+00  0.00000E+00  9.000E+00
      -5     1     1     2     0   503 -4.857631709E+00 -1.767665508E+01 -2.587292385E+02  2.594213601E+02  4.750000000E+00  0.00000E+00  9.000E+00
      21     1     1     2   512   502  1.113568987E+00  6.549270516E+00 -3.751938449E+02  3.752526539E+02  0.000000000E+00  0.00000E+00  9.000E+00
#rwgt            1           9  -2.0078563328003161E-004           4     2652697           0
</event>
<event>
      6   9999  3.45752E-01  3.12622E+01 -1.00000E+00  1.46689E-01
      21    -1     0     0   501   511  0.000000000E+00  0.000000000E+00  1.068150230E+02  1.068150230E+02  0.000000000E+00  0.00000E+00  9.000E+00
      21    -1     0     0   502   503  0.000000000E+00  0.000000000E+00 -1.585784575E+03  1.585784575E+03  0.000000000E+00  0.00000E+00  9.000E+00
      25     1     1     2     0     0 -1.016669596E+02 -5.990412293E+01 -4.086164559E+02  4.433022529E+02  1.249992191E+02  0.00000E+00  9.000E+00
       5     1     1     2   501     0 -1.910450429E+00 -7.365260041E+00  7.712969051E+01  7.764952373E+01  4.750000000E+00  0.00000E+00  9.000E+00
      -5     1     1     2     0   503  7.243948328E+01  7.005413853E+01 -1.132493167E+03  1.136977747E+03  4.750000000E+00  0.00000E+00  9.000E+00
      21     1     1     2   502   511  3.113792678E+01 -2.784755559E+00 -1.498961888E+01  3.467007387E+01  6.743495762E-07  0.00000E+00  9.000E+00
#rwgt            1           9   3.5436372372292762E-004           4     2657872           0
</event>
<event>
      6   9999  3.45752E-01  1.20049E+01 -1.00000E+00  1.79204E-01
      21    -1     0     0   501   512  0.000000000E+00  0.000000000E+00  6.145272023E+01  6.145272023E+01  0.000000000E+00  0.00000E+00  9.000E+00
      21    -1     0     0   502   503  0.000000000E+00  0.000000000E+00 -1.871488018E+03  1.871488018E+03  0.000000000E+00  0.00000E+00  9.000E+00
      25     1     1     2     0     0 -9.741378493E+01  4.476526318E+01 -1.377139950E+03  1.386957772E+03  1.250761620E+02  0.00000E+00  9.000E+00
       5     1     1     2   501     0  6.609477646E+00  4.125049002E+00  4.014233496E+01  4.116637925E+01  4.750000000E+00  0.00000E+00  9.000E+00
      -5     1     1     2     0   503  8.230291735E+01 -5.736645177E+01 -4.803649348E+02  4.907521911E+02  4.750000000E+00  0.00000E+00  9.000E+00
      21     1     1     2   502   512  8.501389934E+00  8.476139582E+00  7.327252620E+00  1.406439490E+01  5.057621821E-07  0.00000E+00  9.000E+00
#rwgt            1           9   6.9108662483097938E-002           4     2660035           0
</event>
<event>
      6   9999  3.45752E-01  1.02059E+01 -1.00000E+00  1.86266E-01
      21    -1     0     0   511   502  0.000000000E+00  0.000000000E+00  1.906666810E+01  1.906666810E+01  0.000000000E+00  0.00000E+00  9.000E+00
      21    -1     0     0   502   503  0.000000000E+00  0.000000000E+00 -2.652105735E+03  2.652105735E+03  0.000000000E+00  0.00000E+00  9.000E+00
      25     1     1     2     0     0 -1.226246280E+01  1.290900316E+01 -2.246079988E+03  2.249626152E+03  1.250019999E+02  0.00000E+00  9.000E+00
       5     1     1     2   501     0  1.716943960E+00  2.125342270E+00 -3.045697337E+00  6.269270180E+00  4.750000000E+00  0.00000E+00  9.000E+00
      -5     1     1     2     0   503  7.959544210E+00 -5.161469236E+00 -3.978564055E+02  3.979978354E+02  4.750000000E+00  0.00000E+00  9.000E+00
      21     1     1     2   511   501  2.585974634E+00 -9.872876191E+00  1.394302411E+01  1.727914553E+01  1.892388805E-06  0.00000E+00  9.000E+00
#rwgt            1           9   1.5975619825511097E-002           4     2664507           0
</event>
<event>
      6   9999 -3.45752E-01  1.04232E+01 -1.00000E+00  1.85317E-01
      21    -1     0     0   512   502  0.000000000E+00  0.000000000E+00  4.419103380E+02  4.419103380E+02  0.000000000E+00  0.00000E+00  9.000E+00
      21    -1     0     0   502   503  0.000000000E+00  0.000000000E+00 -1.195838321E+02  1.195838321E+02  0.000000000E+00  0.00000E+00  9.000E+00
      25     1     1     2     0     0 -5.775302245E+01 -2.798756213E+01 -4.658402019E+01  1.480347469E+02  1.250020004E+02  0.00000E+00  9.000E+00
       5     1     1     2   501     0 -5.529149674E-01 -1.398206137E+00  3.073188256E+01  3.113313028E+01  4.750000000E+00  0.00000E+00  9.000E+00
      -5     1     1     2     0   503  4.895199670E+01  2.478709417E+01  1.249338987E+01  5.647428892E+01  4.750000000E+00  0.00000E+00  9.000E+00
      21     1     1     2   512   501  9.353940719E+00  4.598674100E+00  3.256852537E+02  3.258520040E+02  5.394796609E-06  0.00000E+00  9.000E+00
#rwgt            1           9  -2.8679843723252509E-004           4     2666672           0
</event>
<event>
      6   9999  3.45752E-01  5.98291E+00 -1.00000E+00  2.14231E-01
      21    -1     0     0   501   511  0.000000000E+00  0.000000000E+00  2.922722150E+01  2.922722150E+01  0.000000000E+00  0.00000E+00  9.000E+00
      21    -1     0     0   502   503  0.000000000E+00  0.000000000E+00 -1.085033215E+03  1.085033215E+03  0.000000000E+00  0.00000E+00  9.000E+00
      25     1     1     2     0     0 -1.543968194E+01 -3.212378779E+01 -4.562950988E+02  4.744475196E+02  1.249996405E+02  0.00000E+00  9.000E+00
       5     1     1     2   501     0  2.292803275E+01 -3.364181353E+00  8.602855306E+00  2.517109496E+01  4.750000000E+00  0.00000E+00  9.000E+00
      -5     1     1     2     0   503 -1.570389925E+00  3.636711365E+01 -6.075216021E+02  6.086296843E+02  4.750000000E+00  0.00000E+00  9.000E+00
      21     1     1     2   502   511 -5.917960887E+00 -8.791445018E-01 -5.921475180E-01  6.012137290E+00  6.537857940E-08  0.00000E+00  9.000E+00
#rwgt            1           9   3.3511757624855448E-002           4     2669804           0
</event>
<event>
      6   9999  3.45752E-01  1.24004E+01 -1.00000E+00  1.77860E-01
      21    -1     0     0   512   502  0.000000000E+00  0.000000000E+00  1.333596578E+01  1.333596578E+01  0.000000000E+00  0.00000E+00  9.000E+00
      21    -1     0     0   502   503  0.000000000E+00  0.000000000E+00 -8.721845525E+02  8.721845525E+02  0.000000000E+00  0.00000E+00  9.000E+00
      25     1     1     2     0     0  1.606286224E+01 -4.962959723E+01 -6.144397313E+02  6.291925979E+02  1.250041175E+02  0.00000E+00  9.000E+00
       5     1     1     2   501     0 -1.910050016E-02 -2.575785450E-01  3.927934973E-01  4.773206288E+00  4.750000000E+00  0.00000E+00  9.000E+00
      -5     1     1     2     0   503 -1.641953731E+01  3.749244545E+01 -2.200036435E+02  2.238290650E+02  4.750000000E+00  0.00000E+00  9.000E+00
      21     1     1     2   512   501  3.757755740E-01  1.239473033E+01 -2.479800546E+01  2.772564918E+01  5.840038640E-07  0.00000E+00  9.000E+00
#rwgt            1           9   2.2113124087498116E-004           4     2674164           0
</event>
<event>
      6   9999  3.45752E-01  3.31904E+00 -1.00000E+00  2.65914E-01
      21    -1     0     0   501   502  0.000000000E+00  0.000000000E+00  6.754890794E+01  6.754890794E+01  0.000000000E+00  0.00000E+00  9.000E+00
      21    -1     0     0   502   511  0.000000000E+00  0.000000000E+00 -1.102921730E+02  1.102921730E+02  0.000000000E+00  0.00000E+00  9.000E+00
      25     1     1     2     0     0  8.150559757E+00 -5.148363725E+00 -6.054928726E+01  1.392308939E+02  1.250043533E+02  0.00000E+00  9.000E+00
       5     1     1     2   501     0 -3.702062494E-01  9.328366851E-01  2.278666068E+01  2.329810382E+01  4.750000000E+00  0.00000E+00  9.000E+00
      -5     1     1     2     0   503 -8.885141177E+00  1.085751302E+00 -1.080601021E+00  1.019091695E+01  4.750000000E+00  0.00000E+00  9.000E+00
      21     1     1     2   503   511  1.104787669E+00  3.129775737E+00 -3.900037462E+00  5.121166290E+00  7.300048300E-08  0.00000E+00  9.000E+00
#rwgt            1           9   2.2762158360340064E-004           4     2676392           0
</event>
<event>
      6   9999  3.45752E-01  1.90005E+01 -1.00000E+00  1.61929E-01
      21    -1     0     0   512   502  0.000000000E+00  0.000000000E+00  1.486903067E+02  1.486903067E+02  0.000000000E+00  0.00000E+00  9.000E+00
      21    -1     0     0   502   503  0.000000000E+00  0.000000000E+00 -4.211483300E+03  4.211483300E+03  0.000000000E+00  0.00000E+00  9.000E+00
      25     1     1     2     0     0  8.276171108E+01 -2.474109980E+01 -3.074695214E+03  3.078447222E+03  1.250000604E+02  0.00000E+00  9.000E+00
       5     1     1     2   501     0  8.076400669E+00  1.510956870E+01  1.382410864E+01  2.252100783E+01  4.750000000E+00  0.00000E+00  9.000E+00
      -5     1     1     2     0   503 -7.702529341E+01  2.267861836E+01 -1.128422585E+03  1.131285689E+03  4.750000000E+00  0.00000E+00  9.000E+00
      21     1     1     2   512   501 -1.381281834E+01 -1.304708726E+01  1.265006971E+02  1.279196889E+02  1.103957835E-05  0.00000E+00  9.000E+00
#rwgt            1           9   9.9897942812068763E-002           4     2681549           0
</event>
<event>
      6   9999  3.45752E-01  3.81187E+00 -1.00000E+00  2.52261E-01
       1    -1     0     0   501     0  0.000000000E+00  0.000000000E+00  2.317671687E+03  2.317671687E+03  0.000000000E+00  0.00000E+00  9.000E+00
      21    -1     0     0   502   503  0.000000000E+00  0.000000000E+00 -7.267245234E+02  7.267245234E+02  0.000000000E+00  0.00000E+00  9.000E+00
      25     1     1     2     0     0  7.693166754E+00 -5.071963936E+00 -5.832564682E+02  5.965718052E+02  1.249996060E+02  0.00000E+00  9.000E+00
       5     1     1     2   501     0 -6.016356172E+00 -5.958404858E+00 -2.227203266E+01  2.429619454E+01  4.750000000E+00  0.00000E+00  9.000E+00
      -5     1     1     2     0   503 -3.120045874E+00  7.502275184E+00 -1.133296299E+02  1.137197711E+02  4.750000000E+00  0.00000E+00  9.000E+00
       1     1     1     2   502     0  1.443235292E+00  3.528093610E+00  2.309805294E+03  2.309808439E+03  3.051757812E-05  0.00000E+00  9.000E+00
#rwgt            1           9  0.29514063555968029                4     2684110           0
</event>
<event>
      6   9999  3.45752E-01  1.53014E+01 -1.00000E+00  1.69626E-01
      21    -1     0     0   511   503  0.000000000E+00  0.000000000E+00  5.865867044E+01  5.865867044E+01  0.000000000E+00  0.00000E+00  9.000E+00
      21    -1     0     0   501   502  0.000000000E+00  0.000000000E+00 -7.238728945E+02  7.238728945E+02  0.000000000E+00  0.00000E+00  9.000E+00
      25     1     1     2     0     0  1.565663036E+00  2.651540020E+00 -4.534376103E+02  4.703619587E+02  1.250008949E+02  0.00000E+00  9.000E+00
       5     1     1     2   501     0 -9.136486043E+00  5.063645158E+00 -1.928145634E+02  1.931557253E+02  4.750000000E+00  0.00000E+00  9.000E+00
      -5     1     1     2     0   503 -4.417904717E+00  1.792941517E+00 -6.764700049E+01  6.798096570E+01  4.750000000E+00  0.00000E+00  9.000E+00
      21     1     1     2   511   502  1.198872772E+01 -9.508126694E+00  4.868495015E+01  5.103291523E+01  1.907348633E-06  0.00000E+00  9.000E+00
#rwgt            1           9   11.799385424144152                4     2688449           0
</event>
<event>
      6   9999  3.45752E-01  5.22727E+01 -1.00000E+00  1.33763E-01
      21    -1     0     0   502   503  0.000000000E+00  0.000000000E+00  6.370166699E+01  6.370166699E+01  0.000000000E+00  0.00000E+00  9.000E+00
      21    -1     0     0   512   502  0.000000000E+00  0.000000000E+00 -1.591602708E+03  1.591602708E+03  0.000000000E+00  0.00000E+00  9.000E+00
      25     1     1     2     0     0 -5.924598206E+01  8.511589859E+01 -9.949544277E+02  1.008124348E+03  1.250023387E+02  0.00000E+00  9.000E+00
       5     1     1     2   501     0 -4.239916242E+00  7.069532473E+01 -1.426181177E+02  1.593056679E+02  4.750000000E+00  0.00000E+00  9.000E+00
      -5     1     1     2     0   503  2.893610763E+01 -1.950381044E+02 -1.667719079E+02  2.582878090E+02  4.750000000E+00  0.00000E+00  9.000E+00
      21     1     1     2   512   501  3.454979067E+01  3.922688106E+01 -2.235565882E+02  2.295865509E+02  4.672030912E-06  0.00000E+00  9.000E+00
#rwgt            1           9  0.58116304874124669                4     2690088           0
</event>
<event>
      6   9999 -3.45752E-01  2.22166E+01 -1.00000E+00  1.56803E-01
      21    -1     0     0   501   502  0.000000000E+00  0.000000000E+00  3.853347033E+01  3.853347033E+01  0.000000000E+00  0.00000E+00  9.000E+00
      21    -1     0     0   502   511  0.000000000E+00  0.000000000E+00 -1.249957520E+03  1.249957520E+03  0.000000000E+00  0.00000E+00  9.000E+00
      25     1     1     2     0     0 -1.371517107E+02  5.771375126E+01 -5.542179025E+02  5.873019355E+02  1.249984445E+02  0.00000E+00  9.000E+00
       5     1     1     2   501     0  2.284271569E+00 -2.643795987E+00  7.685046987E+00  9.686588719E+00  4.750000000E+00  0.00000E+00  9.000E+00
      -5     1     1     2     0   503  1.570312419E+02 -5.353940524E+01 -5.506143093E+02  5.750860448E+02  4.750000000E+00  0.00000E+00  9.000E+00
      21     1     1     2   503   511 -2.216380274E+01 -1.530550038E+00 -1.142768845E+02  1.164164209E+02  1.907348633E-06  0.00000E+00  9.000E+00
#rwgt            1           9  -8.9062811745832537E-004           4     2691312           0
</event>
<event>
      6   9999  3.45752E-01  7.78056E+00 -1.00000E+00  1.99456E-01
      21    -1     0     0   501   512  0.000000000E+00  0.000000000E+00  7.268827879E+01  7.268827879E+01  0.000000000E+00  0.00000E+00  9.000E+00
      21    -1     0     0   502   503  0.000000000E+00  0.000000000E+00 -9.071996344E+02  9.071996344E+02  0.000000000E+00  0.00000E+00  9.000E+00
      25     1     1     2     0     0 -1.749565330E+00 -6.673479664E+00 -8.746084350E+02  8.835252989E+02  1.250177701E+02  0.00000E+00  9.000E+00
       5     1     1     2   501     0 -2.827062680E+00 -1.853119327E+00  9.769796960E+00  1.137707200E+01  4.750000000E+00  0.00000E+00  9.000E+00
      -5     1     1     2     0   503  3.330353237E+00  8.464977542E-01 -2.674770841E+01  2.738266270E+01  4.750000000E+00  0.00000E+00  9.000E+00
      21     1     1     2   502   512  1.246274773E+00  7.680101237E+00  5.707499087E+01  5.760287960E+01  2.697398305E-06  0.00000E+00  9.000E+00
#rwgt            1           9   3.8743061796471245E-005           4     2693391           0
</event>
<event>
      6   9999  3.45752E-01  1.51748E+01 -1.00000E+00  1.69936E-01
      21    -1     0     0   501   502  0.000000000E+00  0.000000000E+00  2.253158320E+01  2.253158320E+01  0.000000000E+00  0.00000E+00  9.000E+00
      21    -1     0     0   511   503  0.000000000E+00  0.000000000E+00 -1.785730541E+03  1.785730541E+03  0.000000000E+00  0.00000E+00  9.000E+00
      25     1     1     2     0     0  6.854271650E+01 -2.285467046E+01 -8.083211791E+02  8.211146737E+02  1.250029555E+02  0.00000E+00  9.000E+00
       5     1     1     2   501     0  3.156631006E+00  2.276867552E+00  1.171100509E+01  1.322341050E+01  4.750000000E+00  0.00000E+00  9.000E+00
      -5     1     1     2     0   503 -5.853029928E+01  1.303780355E+01 -2.485646532E+02  2.557395737E+02  4.750000000E+00  0.00000E+00  9.000E+00
      21     1     1     2   511   502 -1.316904823E+01  7.539999364E+00 -7.180241301E+02  7.181844658E+02  0.000000000E+00  0.00000E+00  9.000E+00
#rwgt            1           9   1.7864272159315165E-004           4     2696431           0
</event>
<event>
      6   9999  3.45752E-01  1.90998E+01 -1.00000E+00  1.61752E-01
      21    -1     0     0   502   503  0.000000000E+00  0.000000000E+00  8.904989342E+00  8.904989342E+00  0.000000000E+00  0.00000E+00  9.000E+00
      21    -1     0     0   501   512  0.000000000E+00  0.000000000E+00 -1.000895905E+03  1.000895905E+03  0.000000000E+00  0.00000E+00  9.000E+00
      25     1     1     2     0     0 -2.216587866E+01  1.341556313E+01 -4.826448513E+02  4.992417905E+02  1.250000378E+02  0.00000E+00  9.000E+00
       5     1     1     2   501     0  6.378015612E+00 -4.191066650E+00 -2.213892073E+02  2.215716311E+02  4.750000000E+00  0.00000E+00  9.000E+00
      -5     1     1     2     0   503 -9.792254886E-01 -7.757629861E-02 -3.931065264E+01  3.960877190E+01  4.750000000E+00  0.00000E+00  9.000E+00
      21     1     1     2   502   512  1.676708853E+01 -9.146920182E+00 -2.486462044E+02  2.493787007E+02  5.394796609E-06  0.00000E+00  9.000E+00
#rwgt            1           9   1.4364989593894744                4     2698812           0
</event>
<event>
      6   9999  3.45752E-01  1.37328E+01 -1.00000E+00  1.73762E-01
      21    -1     0     0   501   502  0.000000000E+00  0.000000000E+00  5.788014655E+01  5.788014655E+01  0.000000000E+00  0.00000E+00  9.000E+00
      21    -1     0     0   502   511  0.000000000E+00  0.000000000E+00 -1.418471710E+03  1.418471710E+03  0.000000000E+00  0.00000E+00  9.000E+00
      25     1     1     2     0     0  1.370572480E+02 -1.813819352E+02 -7.050084560E+02  7.512303419E+02  1.250040314E+02  0.00000E+00  9.000E+00
       5     1     1     2   501     0 -2.974266134E-01 -1.897057411E+00  1.189405934E+01  1.295061531E+01  4.750000000E+00  0.00000E+00  9.000E+00
      -5     1     1     2     0   503 -1.241938533E+02  1.888184790E+02 -5.612933744E+02  6.051027564E+02  4.750000000E+00  0.00000E+00  9.000E+00
      21     1     1     2   503   511 -1.256596806E+01 -5.539486354E+00 -1.061837920E+02  1.070681425E+02  1.348699152E-06  0.00000E+00  9.000E+00
#rwgt            1           9   1.7409205416715360E-004           4     2700306           0
</event>
<event>
      6   9999 -3.45752E-01  4.23247E+01 -1.00000E+00  1.38778E-01
      21    -1     0     0   501   502  0.000000000E+00  0.000000000E+00  3.665473046E+02  3.665473046E+02  0.000000000E+00  0.00000E+00  9.000E+00
      21    -1     0     0   512   503  0.000000000E+00  0.000000000E+00 -2.077996904E+02  2.077996904E+02  0.000000000E+00  0.00000E+00  9.000E+00
      25     1     1     2     0     0  1.794650726E+02  1.864543142E+01  7.342693102E+01  2.314538046E+02  1.249959402E+02  0.00000E+00  9.000E+00
       5     1     1     2   501     0 -2.106813209E+01 -1.693965761E+01  5.999981025E+01  6.597998120E+01  4.750000000E+00  0.00000E+00  9.000E+00
      -5     1     1     2     0   503 -1.168093631E+02  6.159070625E+00  1.233975008E+02  1.700937011E+02  4.750000000E+00  0.00000E+00  9.000E+00
      21     1     1     2   512   502 -4.158757742E+01 -7.864844437E+00 -9.807662786E+01  1.068195081E+02  1.348699152E-06  0.00000E+00  9.000E+00
#rwgt            1           9  -1.9786132313532739E-002           4     2703794           0
</event>
<event>
      6   9999  3.45752E-01  2.61899E+01 -1.00000E+00  1.51758E-01
      21    -1     0     0   511   502  0.000000000E+00  0.000000000E+00  3.690826191E+02  3.690826191E+02  0.000000000E+00  0.00000E+00  9.000E+00
      21    -1     0     0   502   503  0.000000000E+00  0.000000000E+00 -1.077466257E+03  1.077466257E+03  0.000000000E+00  0.00000E+00  9.000E+00
      25     1     1     2     0     0 -3.233786934E+02 -1.916117180E+02  1.598527588E+02  4.271616825E+02  1.250014746E+02  0.00000E+00  9.000E+00
       5     1     1     2   501     0  1.303543829E+00  2.190689424E+00  1.997649966E+01  2.069109435E+01  4.750000000E+00  0.00000E+00  9.000E+00
      -5     1     1     2     0   503  3.300932406E+02  2.143533839E+02 -8.892668586E+02  9.724849762E+02  4.750000000E+00  0.00000E+00  9.000E+00
      21     1     1     2   511   501 -8.018091071E+00 -2.493235526E+01  1.053962421E+00  2.621112283E+01  5.717076687E-07  0.00000E+00  9.000E+00
#rwgt            1           9   3.5159786545289735E-002           4     2705465           0
</event>
<event>
      6   9999  3.45752E-01  1.13171E+01 -1.00000E+00  1.81706E-01
      21    -1     0     0   501   502  0.000000000E+00  0.000000000E+00  2.021465880E+01  2.021465880E+01  0.000000000E+00  0.00000E+00  9.000E+00
      21    -1     0     0   512   503  0.000000000E+00  0.000000000E+00 -1.039054305E+03  1.039054305E+03  0.000000000E+00  0.00000E+00  9.000E+00
      25     1     1     2     0     0  8.186583790E+00  1.668233622E+00 -9.241367148E+02  9.325894024E+02  1.249980904E+02  0.00000E+00  9.000E+00
       5     1     1     2   501     0 -1.159488781E+00  8.938440953E+00  1.353367729E+01  1.693998411E+01  4.750000000E+00  0.00000E+00  9.000E+00
      -5     1     1     2     0   503 -4.052015061E+00  3.123972014E-01 -5.208956067E+01  5.246333242E+01  4.750000000E+00  0.00000E+00  9.000E+00
      21     1     1     2   512   502 -2.975079947E+00 -1.091907178E+01 -5.614704766E+01  5.727624455E+01  6.743495762E-07  0.00000E+00  9.000E+00
#rwgt            1           9   4.5658752892650020E-004           4     2708587           0
</event>
<event>
      6   9999  3.45752E-01  8.49331E+01 -1.00000E+00  1.23528E-01
      21    -1     0     0   501   511  0.000000000E+00  0.000000000E+00  1.311949827E+02  1.311949827E+02  0.000000000E+00  0.00000E+00  9.000E+00
      21    -1     0     0   502   503  0.000000000E+00  0.000000000E+00 -1.086372322E+03  1.086372322E+03  0.000000000E+00  0.00000E+00  9.000E+00
      25     1     1     2     0     0 -9.945620460E+01 -2.457248196E+01 -9.941819143E+02  1.007233190E+03  1.250027052E+02  0.00000E+00  9.000E+00
       5     1     1     2   501     0  1.901653690E+01 -1.685768750E+01  5.003424074E+00  2.633262342E+01  4.750000000E+00  0.00000E+00  9.000E+00
      -5     1     1     2     0   503  1.458687644E+01 -1.220783993E+01 -5.654984520E+01  5.985194911E+01  4.750000000E+00  0.00000E+00  9.000E+00
      21     1     1     2   502   511  6.585279126E+01  5.363800939E+01  9.055099575E+01  1.241495429E+02  3.568322551E-06  0.00000E+00  9.000E+00
#rwgt            1           9   1.5185275129034346E-003           4     2711400           0
</event>
<event>
      6   9999  3.45752E-01  3.20489E+00 -1.00000E+00  2.69617E-01
      21    -1     0     0   501   502  0.000000000E+00  0.000000000E+00  1.939261038E+01  1.939261038E+01  0.000000000E+00  0.00000E+00  9.000E+00
      21    -1     0     0   502   512  0.000000000E+00  0.000000000E+00 -9.913251711E+02  9.913251711E+02  0.000000000E+00  0.00000E+00  9.000E+00
      25     1     1     2     0     0  3.655001835E+00 -2.101853306E+01 -3.336997451E+02  3.569833450E+02  1.250058037E+02  0.00000E+00  9.000E+00
       5     1     1     2   501     0  4.258340042E-01  5.329505644E-01  6.607013689E+00  8.165812929E+00  4.750000000E+00  0.00000E+00  9.000E+00
      -5     1     1     2     0   503 -7.285208027E+00  2.054334025E+01 -6.296168436E+02  6.300119327E+02  4.750000000E+00  0.00000E+00  9.000E+00
      21     1     1     2   503   512  3.204372187E+00 -5.775774767E-02 -1.522298569E+01  1.555669086E+01  1.685873940E-07  0.00000E+00  9.000E+00
#rwgt            1           9   4.0149281302138834E-005           4     2712263           0
</event>
<event>
      6   9999  3.45752E-01  9.59664E+00 -1.00000E+00  1.89097E-01
      21    -1     0     0   501   502  0.000000000E+00  0.000000000E+00  5.864131478E+01  5.864131478E+01  0.000000000E+00  0.00000E+00  9.000E+00
      21    -1     0     0   502   511  0.000000000E+00  0.000000000E+00 -2.226841625E+02  2.226841625E+02  0.000000000E+00  0.00000E+00  9.000E+00
      25     1     1     2     0     0 -1.823733980E+00 -7.483392121E+01 -8.493289707E+01  1.686472411E+02  1.249994126E+02  0.00000E+00  9.000E+00
       5     1     1     2   501     0  3.635519517E+00  1.202281714E+00 -4.083962098E+00  7.341915955E+00  4.750000000E+00  0.00000E+00  9.000E+00
      -5     1     1     2     0   503 -4.372221540E-01  6.413395308E+01 -6.424640477E+01  9.090389500E+01  4.750000000E+00  0.00000E+00  9.000E+00
      21     1     1     2   503   511 -1.374563383E+00  9.497686424E+00 -1.077958376E+01  1.443242523E+01  2.665600750E-07  0.00000E+00  9.000E+00
#rwgt            1           9   25.422174260534945                4     2718715           0
</event>
<event>
      6   9999  3.45752E-01  2.84606E+01 -1.00000E+00  1.49333E-01
      21    -1     0     0   501   512  0.000000000E+00  0.000000000E+00  2.077129005E+01  2.077129005E+01  0.000000000E+00  0.00000E+00  9.000E+00
      21    -1     0     0   502   503  0.000000000E+00  0.000000000E+00 -7.931778623E+02  7.931778623E+02  0.000000000E+00  0.00000E+00  9.000E+00
      25     1     1     2     0     0 -2.678231029E+01 -3.535284451E+00 -4.470078109E+02  4.649421758E+02  1.250018139E+02  0.00000E+00  9.000E+00
       5     1     1     2   501     0  1.962850654E+01  1.414441365E+01 -1.417748367E+02  1.439027781E+02  4.750000000E+00  0.00000E+00  9.000E+00
      -5     1     1     2     0   503  5.690647714E+00  1.781385949E+01 -1.739910104E+02  1.750575656E+02  4.750000000E+00  0.00000E+00  9.000E+00
      21     1     1     2   502   512  1.463156031E+00 -2.842298869E+01 -9.632914218E+00  3.004663289E+01  7.539457465E-07  0.00000E+00  9.000E+00
#rwgt            1           9   1.0786419567590860E-003           4     2722271           0
</event>
<event>
      6   9999  3.45752E-01  3.27938E+01 -1.00000E+00  1.45379E-01
      21    -1     0     0   501   502  0.000000000E+00  0.000000000E+00  3.071230545E+03  3.071230545E+03  0.000000000E+00  0.00000E+00  9.000E+00
      21    -1     0     0   502   511  0.000000000E+00  0.000000000E+00 -6.494718595E+01  6.494718595E+01  0.000000000E+00  0.00000E+00  9.000E+00
      25     1     1     2     0     0  2.923335705E+02  9.667755169E+01  1.444660574E+03  1.482388234E+03  1.250009414E+02  0.00000E+00  9.000E+00
       5     1     1     2   501     0 -3.279155298E+00 -9.552808302E-01  7.199330265E+02  7.199567977E+02  4.750000000E+00  0.00000E+00  9.000E+00
      -5     1     1     2     0   503 -3.043727523E+02 -6.672599111E+01  8.452280134E+02  9.008485374E+02  4.750000000E+00  0.00000E+00  9.000E+00
      21     1     1     2   503   511  1.531833716E+01 -2.899627975E+01 -3.538255162E+00  3.298416199E+01  4.730972012E-07  0.00000E+00  9.000E+00
#rwgt            1           9   3.1041854272611498E-003           4     2723521           0
</event>
<event>
      6   9999  3.45752E-01  3.44670E+01 -1.00000E+00  1.44042E-01
      21    -1     0     0   501   512  0.000000000E+00  0.000000000E+00  1.827291327E+01  1.827291327E+01  0.000000000E+00  0.00000E+00  9.000E+00
      21    -1     0     0   502   503  0.000000000E+00  0.000000000E+00 -1.119685241E+03  1.119685241E+03  0.000000000E+00  0.00000E+00  9.000E+00
      25     1     1     2     0     0  4.161520955E+01 -5.263449161E+01 -4.106600833E+02  4.344762379E+02  1.250027277E+02  0.00000E+00  9.000E+00
       5     1     1     2   501     0  1.441258582E+00  7.228898173E-01 -3.290113228E+00  5.998928324E+00  4.750000000E+00  0.00000E+00  9.000E+00
      -5     1     1     2     0   503 -1.879797754E+01  7.639623986E+01 -5.568179653E+02  5.623687032E+02  4.750000000E+00  0.00000E+00  9.000E+00
      21     1     1     2   502   512 -2.425849060E+01 -2.448463807E+01 -1.306441660E+02  1.351142849E+02  0.000000000E+00  0.00000E+00  9.000E+00
#rwgt            1           9   1.0419945388302097E-002           4     2725682           0
</event>
<event>
      6   9999 -3.45752E-01  1.00714E+01 -1.00000E+00  1.86869E-01
      21    -1     0     0   501   502  0.000000000E+00  0.000000000E+00  1.864027532E+01  1.864027532E+01  0.000000000E+00  0.00000E+00  9.000E+00
      21    -1     0     0   502   511  0.000000000E+00  0.000000000E+00 -5.658797073E+02  5.658797073E+02  0.000000000E+00  0.00000E+00  9.000E+00
      25     1     1     2     0     0  1.284693109E+01 -1.415788756E+01 -2.571072733E+02  2.865215508E+02  1.249998387E+02  0.00000E+00  9.000E+00
       5     1     1     2   501     0 -3.652901260E-01  8.960732852E-01  5.201747585E-01  4.875393932E+00  4.750000000E+00  0.00000E+00  9.000E+00
      -5     1     1     2     0   503 -1.424292043E+01  2.317803832E+01 -2.279990070E+02  2.296653912E+02  4.750000000E+00  0.00000E+00  9.000E+00
      21     1     1     2   503   511  1.761279471E+00 -9.916224041E+00 -6.265332647E+01  6.345764669E+01  6.743495762E-07  0.00000E+00  9.000E+00
#rwgt            1           9  -469.01498028490204                4     2727532           0
</event>
<event>
      6   9999 -3.45752E-01  3.56605E+00 -1.00000E+00  2.58646E-01
      21    -1     0     0   501   502  0.000000000E+00  0.000000000E+00  1.247217469E+02  1.247217469E+02  0.000000000E+00  0.00000E+00  9.000E+00
       2    -1     0     0   502     0  0.000000000E+00  0.000000000E+00 -7.717541620E+02  7.717541620E+02  0.000000000E+00  0.00000E+00  9.000E+00
      25     1     1     2     0     0  1.558660037E+01  8.902584144E+00 -2.724438178E+01  1.291888183E+02  1.250011853E+02  0.00000E+00  9.000E+00
       5     1     1     2   501     0  3.288006596E+00 -1.367461216E+01  6.493002012E+01  6.660537529E+01  4.750000000E+00  0.00000E+00  9.000E+00
      -5     1     1     2     0   503 -1.543880867E+01  3.817025498E+00 -6.564714853E-01  1.661083838E+01  4.750000000E+00  0.00000E+00  9.000E+00
       2     1     1     2   503     0 -3.435798294E+00  9.550025170E-01 -6.840615819E+02  6.840708769E+02  1.078959322E-05  0.00000E+00  9.000E+00
#rwgt            1           9  -8059.2749838848385                4     2729954           0
</event>
<event>
      6   9999 -3.45752E-01  1.34242E+02 -1.00000E+00  1.15240E-01
      21    -1     0     0   511   502  0.000000000E+00  0.000000000E+00  1.160159109E+02  1.160159109E+02  0.000000000E+00  0.00000E+00  9.000E+00
      21    -1     0     0   502   503  0.000000000E+00  0.000000000E+00 -1.435626442E+03  1.435626442E+03  0.000000000E+00  0.00000E+00  9.000E+00
      25     1     1     2     0     0 -3.288289962E+01  2.157621742E+02 -1.106593262E+03  1.134816787E+03  1.250035696E+02  0.00000E+00  9.000E+00
       5     1     1     2   501     0  3.953128252E+01 -9.127437549E+01 -7.053104578E+01  1.220283772E+02  4.750000000E+00  0.00000E+00  9.000E+00
      -5     1     1     2     0   503  6.672937163E+01 -1.207512315E+01 -1.454184295E+02  1.605232063E+02  4.750000000E+00  0.00000E+00  9.000E+00
      21     1     1     2   511   501 -7.337775453E+01 -1.124126755E+02  2.932205894E+00  1.342739823E+02  1.415531884E-06  0.00000E+00  9.000E+00
#rwgt            1           9  -1.6028098124014096E-004           4     2735822           0
</event>
<event>
      6   9999  3.45752E-01  1.01610E+01 -1.00000E+00  1.86466E-01
      21    -1     0     0   501   502  0.000000000E+00  0.000000000E+00  1.793714086E+01  1.793714086E+01  0.000000000E+00  0.00000E+00  9.000E+00
       2    -1     0     0   502     0  0.000000000E+00  0.000000000E+00 -1.386887105E+03  1.386887105E+03  0.000000000E+00  0.00000E+00  9.000E+00
      25     1     1     2     0     0 -8.793614398E-01 -3.262147978E+00 -8.376849619E+02  8.469667669E+02  1.250007758E+02  0.00000E+00  9.000E+00
       5     1     1     2   501     0 -4.082849602E+00  4.344154032E-01  1.231522676E+01  1.382337468E+01  4.750000000E+00  0.00000E+00  9.000E+00
      -5     1     1     2     0   503  1.850094047E+00 -6.844977059E+00 -1.084669343E+02  1.088021824E+02  4.750000000E+00  0.00000E+00  9.000E+00
       2     1     1     2   503     0  3.112116994E+00  9.672709634E+00 -4.351132952E+02  4.352319223E+02  5.394796609E-06  0.00000E+00  9.000E+00
#rwgt            1           9   6.1594328653454637E-005           4     2736501           0
</event>
<event>
      6   9999  3.45752E-01  6.04769E+01 -1.00000E+00  1.30511E-01
      21    -1     0     0   501   502  0.000000000E+00  0.000000000E+00  2.172617329E+03  2.172617329E+03  0.000000000E+00  0.00000E+00  9.000E+00
      21    -1     0     0   511   503  0.000000000E+00  0.000000000E+00 -1.529494509E+02  1.529494509E+02  0.000000000E+00  0.00000E+00  9.000E+00
      25     1     1     2     0     0  1.769067997E+02 -4.321053469E+01  1.649940374E+03  1.664659058E+03  1.249935054E+02  0.00000E+00  9.000E+00
       5     1     1     2   501     0 -3.905394595E+00  9.196905719E-01  2.430255174E+02  2.431050443E+02  4.750000000E+00  0.00000E+00  9.000E+00
      -5     1     1     2     0   503 -2.307494295E+02  2.432923319E+01  2.112676936E+02  3.138372376E+02  4.750000000E+00  0.00000E+00  9.000E+00
      21     1     1     2   511   502  5.774802443E+01  1.796161092E+01 -8.456570713E+01  1.039654395E+02  3.162979880E-06  0.00000E+00  9.000E+00
#rwgt            1           9  0.15900813718518714                4     2740103           0
</event>
<event>
      6   9999  3.45752E-01  2.26693E+01 -1.00000E+00  1.56166E-01
      21    -1     0     0   501   502  0.000000000E+00  0.000000000E+00  2.368003459E+01  2.368003459E+01  0.000000000E+00  0.00000E+00  9.000E+00
      21    -1     0     0   502   512  0.000000000E+00  0.000000000E+00 -1.418339875E+03  1.418339875E+03  0.000000000E+00  0.00000E+00  9.000E+00
      25     1     1     2     0     0  2.291592515E+01  6.807467035E-01 -8.330967052E+02  8.427342288E+02  1.250010287E+02  0.00000E+00  9.000E+00
       5     1     1     2   501     0  6.012331786E+00  7.853720403E+00  1.678678243E+01  2.005461598E+01  4.750000000E+00  0.00000E+00  9.000E+00
      -5     1     1     2     0   503 -7.027543204E+00 -2.681639288E+00 -2.056881038E+02  2.058803927E+02  4.750000000E+00  0.00000E+00  9.000E+00
      21     1     1     2   503   512 -2.190071373E+01 -5.852827818E+00 -3.726618137E+02  3.733506720E+02  0.000000000E+00  0.00000E+00  9.000E+00
#rwgt            1           9   5.1813747921892401E-005           4     2741223           0
</event>
<event>
      6   9999  3.45752E-01  4.73324E+00 -1.00000E+00  2.33632E-01
      21    -1     0     0   511   502  0.000000000E+00  0.000000000E+00  4.744144850E+01  4.744144850E+01  0.000000000E+00  0.00000E+00  9.000E+00
      21    -1     0     0   502   503  0.000000000E+00  0.000000000E+00 -1.884265753E+02  1.884265753E+02  0.000000000E+00  0.00000E+00  9.000E+00
      25     1     1     2     0     0  3.211663068E+00  1.069442782E+00 -1.532552347E+02  1.977945851E+02  1.249962898E+02  0.00000E+00  9.000E+00
       5     1     1     2   501     0  5.635606954E-01  1.569228181E+00  1.520002222E+01  1.601197218E+01  4.750000000E+00  0.00000E+00  9.000E+00
      -5     1     1     2     0   503  6.614676065E-01 -9.896435688E-01 -1.137284244E+01  1.238228489E+01  4.750000000E+00  0.00000E+00  9.000E+00
      21     1     1     2   511   501 -4.436691370E+00 -1.649027394E+00  8.442928103E+00  9.679181608E+00  2.384185791E-07  0.00000E+00  9.000E+00
#rwgt            1           9   16.246028799298067                4     2743565           0
</event>
<event>
      6   9999  3.45752E-01  1.12089E+01 -1.00000E+00  1.82120E-01
      21    -1     0     0   501   502  0.000000000E+00  0.000000000E+00  2.538928343E+01  2.538928343E+01  0.000000000E+00  0.00000E+00  9.000E+00
      21    -1     0     0   502   512  0.000000000E+00  0.000000000E+00 -2.925806300E+02  2.925806300E+02  0.000000000E+00  0.00000E+00  9.000E+00
      25     1     1     2     0     0 -1.857672622E+01 -1.879022092E+01 -2.154209962E+02  2.504560846E+02  1.249955102E+02  0.00000E+00  9.000E+00
       5     1     1     2   501     0 -2.067646227E-01 -2.210702208E-01  1.975357289E+00  5.153266932E+00  4.750000000E+00  0.00000E+00  9.000E+00
      -5     1     1     2     0   503  9.105486456E+00  1.335664379E+01 -1.696532767E+01  2.391013718E+01  4.750000000E+00  0.00000E+00  9.000E+00
      21     1     1     2   503   512  9.678004389E+00  5.654647348E+00 -3.678038005E+01  3.845042474E+01  0.000000000E+00  0.00000E+00  9.000E+00
#rwgt            1           9   1.6727133804753228E-002           4     2748117           0
</event>
<event>
      6   9999  3.45752E-01  5.61551E+00 -1.00000E+00  2.18144E-01
      21    -1     0     0   501   502  0.000000000E+00  0.000000000E+00  9.063296362E+01  9.063296362E+01  0.000000000E+00  0.00000E+00  9.000E+00
      21    -1     0     0   502   511  0.000000000E+00  0.000000000E+00 -2.455366022E+02  2.455366022E+02  0.000000000E+00  0.00000E+00  9.000E+00
      25     1     1     2     0     0  1.196931035E+01 -2.769775668E+01 -1.773766934E+02  2.190843296E+02  1.250000880E+02  0.00000E+00  9.000E+00
       5     1     1     2   501     0  3.395223220E+00  1.902136107E+00  4.464146669E+01  4.506183208E+01  4.750000000E+00  0.00000E+00  9.000E+00
      -5     1     1     2     0   503 -1.563930987E+01  3.140440702E+01  1.201144844E+01  3.738532048E+01  4.750000000E+00  0.00000E+00  9.000E+00
      21     1     1     2   503   511  2.747762954E-01 -5.608786447E+00 -3.417986035E+01  3.463808368E+01  4.768371582E-07  0.00000E+00  9.000E+00
#rwgt            1           9   2.3772023973237095E-002           4     2750437           0
</event>
<event>
      6   9999  3.45752E-01  4.62077E+00 -1.00000E+00  2.35558E-01
      21    -1     0     0   512   502  0.000000000E+00  0.000000000E+00  8.251627869E+01  8.251627869E+01  0.000000000E+00  0.00000E+00  9.000E+00
      21    -1     0     0   502   503  0.000000000E+00  0.000000000E+00 -6.515218285E+01  6.515218285E+01  0.000000000E+00  0.00000E+00  9.000E+00
      25     1     1     2     0     0 -3.233262061E+00  9.691413001E+00  1.408191909E+01  1.273447444E+02  1.261507274E+02  0.00000E+00  9.000E+00
       5     1     1     2   501     0 -3.310178860E-03  2.210559722E-01  4.526717979E+00  6.565253412E+00  4.750000000E+00  0.00000E+00  9.000E+00
      -5     1     1     2     0   503  2.150326105E-01 -6.416503218E+00 -3.375117892E+00  8.670159938E+00  4.750000000E+00  0.00000E+00  9.000E+00
      21     1     1     2   512   501  3.021539629E+00 -3.495965755E+00  2.130576658E+00  5.088303763E+00  7.884953353E-08  0.00000E+00  9.000E+00
#rwgt            1           9  0.20888370935546297                4     2754916           0
</event>
<event>
      6   9999  3.45752E-01  5.69759E+00 -1.00000E+00  2.17235E-01
      21    -1     0     0   501   502  0.000000000E+00  0.000000000E+00  3.005906372E+02  3.005906372E+02  0.000000000E+00  0.00000E+00  9.000E+00
      21    -1     0     0   511   503  0.000000000E+00  0.000000000E+00 -1.383324686E+02  1.383324686E+02  0.000000000E+00  0.00000E+00  9.000E+00
      25     1     1     2     0     0 -1.933120548E+01 -4.166348209E+01 -5.571506347E+01  1.443594323E+02  1.250037446E+02  0.00000E+00  9.000E+00
       5     1     1     2   501     0  6.119326542E+00 -9.181968126E-01  2.414805956E+02  2.416065599E+02  4.750000000E+00  0.00000E+00  9.000E+00
      -5     1     1     2     0   503  7.957993685E+00  4.037730336E+01 -1.849408116E+01  4.536793833E+01  4.750000000E+00  0.00000E+00  9.000E+00
      21     1     1     2   511   502  5.253885254E+00  2.204375547E+00 -5.013282349E+00  7.589175300E+00  1.576990671E-07  0.00000E+00  9.000E+00
#rwgt            1           9   1.5667175652777453E-004           4     2758633           0
</event>
<event>
      6   9999  3.45752E-01  3.04936E+00 -1.00000E+00  2.75071E-01
      21    -1     0     0   501   502  0.000000000E+00  0.000000000E+00  7.559945230E+01  7.559945230E+01  0.000000000E+00  0.00000E+00  9.000E+00
      21    -1     0     0   512   503  0.000000000E+00  0.000000000E+00 -1.779014294E+03  1.779014294E+03  0.000000000E+00  0.00000E+00  9.000E+00
      25     1     1     2     0     0 -1.583289614E+02  7.426926934E+01 -1.360692023E+03  1.377567041E+03  1.249967557E+02  0.00000E+00  9.000E+00
       5     1     1     2   501     0  4.801872595E+00 -2.181748321E+00  4.829723942E+01  4.881602034E+01  4.750000000E+00  0.00000E+00  9.000E+00
      -5     1     1     2     0   503  1.504885614E+02 -7.234436419E+01 -3.578118285E+02  3.948827436E+02  4.750000000E+00  0.00000E+00  9.000E+00
      21     1     1     2   512   502  3.038527402E+00  2.568431784E-01 -3.320822991E+01  3.334794073E+01  0.000000000E+00  0.00000E+00  9.000E+00
#rwgt            1           9   5.4724011231925031E-002           4     2763876           0
</event>
<event>
      6   9999  3.45752E-01  3.72729E+00 -1.00000E+00  2.54373E-01
      21    -1     0     0   501   511  0.000000000E+00  0.000000000E+00  3.991253440E+01  3.991253440E+01  0.000000000E+00  0.00000E+00  9.000E+00
      21    -1     0     0   502   503  0.000000000E+00  0.000000000E+00 -2.209792978E+03  2.209792978E+03  0.000000000E+00  0.00000E+00  9.000E+00
      25     1     1     2     0     0  2.368428605E+01 -1.873323840E+01 -1.772328449E+03  1.776987291E+03  1.249952836E+02  0.00000E+00  9.000E+00
       5     1     1     2   501     0 -7.457869521E+00 -8.198473913E+00  3.572442052E+01  3.770452909E+01  4.750000000E+00  0.00000E+00  9.000E+00
      -5     1     1     2     0   503 -1.267632347E+01  2.806729399E+01 -4.217498568E+02  4.228994755E+02  4.750000000E+00  0.00000E+00  9.000E+00
      21     1     1     2   502   511 -3.550093060E+00 -1.135581680E+00 -1.152655778E+01  1.211421647E+01  2.384185791E-07  0.00000E+00  9.000E+00
#rwgt            1           9   1.9186067582912718                4     2773589           0
</event>
<event>
      6   9999  3.45752E-01  1.64414E+01 -1.00000E+00  1.66989E-01
      21    -1     0     0   501   502  0.000000000E+00  0.000000000E+00  3.036987505E+01  3.036987505E+01  0.000000000E+00  0.00000E+00  9.000E+00
      21    -1     0     0   502   512  0.000000000E+00  0.000000000E+00 -1.173783153E+03  1.173783153E+03  0.000000000E+00  0.00000E+00  9.000E+00
      25     1     1     2     0     0  7.409554319E+00  7.738073194E+00 -9.087560785E+02  9.173747983E+02  1.249965242E+02  0.00000E+00  9.000E+00
       5     1     1     2   501     0 -6.551650303E+00  2.679225567E+00  2.409014782E+01  2.555386650E+01  4.750000000E+00  0.00000E+00  9.000E+00
      -5     1     1     2     0   503 -5.615712643E-01  6.021456079E+00 -2.019197891E+02  2.020661699E+02  4.750000000E+00  0.00000E+00  9.000E+00
      21     1     1     2   503   512 -2.963327514E-01 -1.643875484E+01 -5.682755852E+01  5.915819370E+01  0.000000000E+00  0.00000E+00  9.000E+00
#rwgt            1           9   3.0169603238349048E-004           4     2782046           0
</event>
<event>
      6   9999 -3.45752E-01  1.23343E+01 -1.00000E+00  1.78081E-01
      21    -1     0     0   511   503  0.000000000E+00  0.000000000E+00  2.856233529E+01  2.856233529E+01  0.000000000E+00  0.00000E+00  9.000E+00
      21    -1     0     0   501   502  0.000000000E+00  0.000000000E+00 -8.489549264E+02  8.489549264E+02  0.000000000E+00  0.00000E+00  9.000E+00
      25     1     1     2     0     0 -1.831475346E+01 -8.024411872E+00 -4.827096222E+02  4.990322669E+02  1.249992104E+02  0.00000E+00  9.000E+00
       5     1     1     2   501     0  1.442139876E+01  7.701594085E+00 -3.104796279E+02  3.109460615E+02  4.750000000E+00  0.00000E+00  9.000E+00
      -5     1     1     2     0   503 -4.159811765E+00 -9.019621113E+00 -4.475354520E+01  4.608795837E+01  4.750000000E+00  0.00000E+00  9.000E+00
      21     1     1     2   511   502  8.053166461E+00  9.342438900E+00  1.755020429E+01  2.145097493E+01  8.920806376E-07  0.00000E+00  9.000E+00
#rwgt            1           9  -36.825458047731566                4     2784898           0
</event>
<event>
      6   9999  3.45752E-01  9.06221E+00 -1.00000E+00  1.91814E-01
       2    -1     0     0   501     0  0.000000000E+00  0.000000000E+00  2.514096979E+01  2.514096979E+01  0.000000000E+00  0.00000E+00  9.000E+00
      -2    -1     0     0     0   512  0.000000000E+00  0.000000000E+00 -1.314070479E+03  1.314070479E+03  0.000000000E+00  0.00000E+00  9.000E+00
      25     1     1     2     0     0  5.892489156E+01  6.192322531E+01 -7.753250304E+02  7.899751980E+02  1.250011285E+02  0.00000E+00  9.000E+00
       5     1     1     2   501     0  2.779150317E+00 -8.096088582E+01 -1.405201362E+02  1.622678646E+02  4.750000000E+00  0.00000E+00  9.000E+00
      -5     1     1     2     0   502 -5.831561860E+01  1.063276522E+01 -1.220095187E+02  1.357300712E+02  4.750000000E+00  0.00000E+00  9.000E+00
      21     1     1     2   502   512 -3.388423277E+00  8.404895285E+00 -2.510748236E+02  2.512383146E+02  2.697398305E-06  0.00000E+00  9.000E+00
#rwgt            1           4   8.3503743732303936E-005           4     2787079           0
</event>
<event>
      6   9999 -3.45752E-01  4.14847E+00 -1.00000E+00  2.44619E-01
      21    -1     0     0   501   502  0.000000000E+00  0.000000000E+00  2.543205134E+03  2.543205134E+03  0.000000000E+00  0.00000E+00  9.000E+00
      21    -1     0     0   511   503  0.000000000E+00  0.000000000E+00 -3.360552046E+00  3.360552046E+00  0.000000000E+00  0.00000E+00  9.000E+00
      25     1     1     2     0     0  5.730982497E-02 -7.556346480E+00  1.249236307E+03  1.255496883E+03  1.249958841E+02  0.00000E+00  9.000E+00
       5     1     1     2   501     0  1.982700580E+00  7.065579504E-01  1.164994268E+03  1.165005853E+03  4.750000000E+00  0.00000E+00  9.000E+00
      -5     1     1     2     0   503 -1.492693196E+00  2.737584759E+00  9.491382001E+01  9.508374326E+01  4.750000000E+00  0.00000E+00  9.000E+00
      21     1     1     2   511   502 -5.473172087E-01  4.112203771E+00  3.070018727E+01  3.097920713E+01  4.768371582E-07  0.00000E+00  9.000E+00
#rwgt            1           9  -1.1006091947864372                4     2787622           0
</event>
<event>
      6   9999  3.45752E-01  1.60820E+01 -1.00000E+00  1.67791E-01
      21    -1     0     0   501   502  0.000000000E+00  0.000000000E+00  9.254731357E+00  9.254731357E+00  0.000000000E+00  0.00000E+00  9.000E+00
      21    -1     0     0   502   512  0.000000000E+00  0.000000000E+00 -9.348156093E+02  9.348156093E+02  0.000000000E+00  0.00000E+00  9.000E+00
      25     1     1     2     0     0 -5.093331609E+00 -1.742556019E+01 -5.128898126E+02  5.282135570E+02  1.249960391E+02  0.00000E+00  9.000E+00
       5     1     1     2   501     0  1.200830408E+01  6.210435664E+00 -1.035128562E+02  1.044999654E+02  4.750000000E+00  0.00000E+00  9.000E+00
      -5     1     1     2     0   503  7.268684294E+00  1.879494502E+01 -1.599241172E+02  1.612587036E+02  4.750000000E+00  0.00000E+00  9.000E+00
      21     1     1     2   503   512 -1.418365677E+01 -7.579820490E+00 -1.492340920E+02  1.500981146E+02  1.907348633E-06  0.00000E+00  9.000E+00
#rwgt            1           9   3.0192450146569153E-004           4     2791942           0
</event>
<event>
      6   9999  3.45752E-01  1.31422E+01 -1.00000E+00  1.75503E-01
       1    -1     0     0   501     0  0.000000000E+00  0.000000000E+00  5.014761326E+02  5.014761326E+02  0.000000000E+00  0.00000E+00  9.000E+00
      21    -1     0     0   502   503  0.000000000E+00  0.000000000E+00 -5.094590238E+02  5.094590238E+02  0.000000000E+00  0.00000E+00  9.000E+00
      25     1     1     2     0     0 -8.744528637E+00 -1.488747923E+01 -4.410304062E+02  4.587272678E+02  1.249991328E+02  0.00000E+00  9.000E+00
       5     1     1     2   501     0  1.480488324E+00  5.589914330E+00  5.625505865E+01  5.675062212E+01  4.750000000E+00  0.00000E+00  9.000E+00
      -5     1     1     2     0   503 -5.394805535E+00  1.282900554E+01 -5.832048515E+01  6.014589593E+01  4.750000000E+00  0.00000E+00  9.000E+00
       1     1     1     2   502     0  1.265884585E+01 -3.531440646E+00  4.351129415E+02  4.353113705E+02  5.394796609E-06  0.00000E+00  9.000E+00
#rwgt            1           9   3.8876514525157320E-004           4     2793915           0
</event>
<event>
      6   9999  3.45752E-01  7.36670E+00 -1.00000E+00  2.02352E-01
      21    -1     0     0   511   503  0.000000000E+00  0.000000000E+00  1.095845265E+02  1.095845265E+02  0.000000000E+00  0.00000E+00  9.000E+00
      21    -1     0     0   501   502  0.000000000E+00  0.000000000E+00 -7.607768903E+02  7.607768903E+02  0.000000000E+00  0.00000E+00  9.000E+00
      25     1     1     2     0     0  3.138964210E+00 -2.047092405E+01 -6.072530007E+02  6.203298180E+02  1.249958576E+02  0.00000E+00  9.000E+00
       5     1     1     2   501     0 -9.306050633E+00  8.165404230E+00 -1.340822295E+02  1.347363469E+02  4.750000000E+00  0.00000E+00  9.000E+00
      -5     1     1     2     0   503  1.623847671E+00  6.506618010E+00 -1.108537711E+01  1.379931320E+01  4.750000000E+00  0.00000E+00  9.000E+00
      21     1     1     2   511   502  4.543238753E+00  5.798901809E+00  1.012282435E+02  1.014959387E+02  3.568322551E-06  0.00000E+00  9.000E+00
#rwgt            1           9   3.6355830086820744E-002           4     2796725           0
</event>
<event>
      6   9999  3.45752E-01  1.38501E+02 -1.00000E+00  1.14716E-01
      21    -1     0     0   512   502  0.000000000E+00  0.000000000E+00  1.752942556E+01  1.752942556E+01  0.000000000E+00  0.00000E+00  9.000E+00
       2    -1     0     0   501     0  0.000000000E+00  0.000000000E+00 -2.755622433E+03  2.755622433E+03  0.000000000E+00  0.00000E+00  9.000E+00
      25     1     1     2     0     0 -4.743146562E+01 -2.549457067E+01 -5.842534989E+02  5.998977583E+02  1.250018092E+02  0.00000E+00  9.000E+00
       5     1     1     2   501     0 -1.768039814E+01 -5.571412825E+00 -2.336858486E+01  3.020414504E+01  4.750000000E+00  0.00000E+00  9.000E+00
      -5     1     1     2     0   502 -6.888384598E+01 -3.973658932E+00 -3.251601353E+02  3.324341293E+02  4.750000000E+00  0.00000E+00  9.000E+00
       2     1     1     2   512     0  1.339957097E+02  3.503964243E+01 -1.805310789E+03  1.810615826E+03  2.157918644E-05  0.00000E+00  9.000E+00
#rwgt            1           3   8.7341598746192310E-004           4     2800066           0
</event>
<event>
      6   9999  3.45752E-01  3.93886E+01 -1.00000E+00  1.40575E-01
      21    -1     0     0   501   502  0.000000000E+00  0.000000000E+00  4.442689152E+01  4.442689152E+01  0.000000000E+00  0.00000E+00  9.000E+00
      21    -1     0     0   511   503  0.000000000E+00  0.000000000E+00 -2.018077415E+03  2.018077415E+03  0.000000000E+00  0.00000E+00  9.000E+00
      25     1     1     2     0     0 -2.360099335E+01 -4.264500339E+01 -5.795779377E+02  5.949030429E+02  1.249937652E+02  0.00000E+00  9.000E+00
       5     1     1     2   501     0 -6.072106540E-01 -1.103730063E+01  3.476297732E+01  3.678610882E+01  4.750000000E+00  0.00000E+00  9.000E+00
      -5     1     1     2     0   503  3.215764603E+01  1.510421632E+01 -6.900234491E+02  6.909538150E+02  4.750000000E+00  0.00000E+00  9.000E+00
      21     1     1     2   511   502 -7.949442022E+00  3.857808770E+01 -7.388121136E+02  7.398613395E+02  1.078959322E-05  0.00000E+00  9.000E+00
#rwgt            1           9   8.0128435827092018E-004           4     2800864           0
</event>
<event>
      6   9999  3.45752E-01  3.48215E+01 -1.00000E+00  1.43770E-01
      21    -1     0     0   501   502  0.000000000E+00  0.000000000E+00  5.288874028E+02  5.288874028E+02  0.000000000E+00  0.00000E+00  9.000E+00
      21    -1     0     0   502   512  0.000000000E+00  0.000000000E+00 -7.780469783E+01  7.780469783E+01  0.000000000E+00  0.00000E+00  9.000E+00
      25     1     1     2     0     0  6.943980813E+01  2.620008848E+01  8.930084761E+01  1.705922134E+02  1.249749187E+02  0.00000E+00  9.000E+00
       5     1     1     2   501     0 -1.307804710E+00  4.499994279E+00  2.134771528E+02  2.135814073E+02  4.750000000E+00  0.00000E+00  9.000E+00
      -5     1     1     2     0   503 -6.612958129E+01  4.063836472E+00  1.692949488E+02  1.818597770E+02  4.750000000E+00  0.00000E+00  9.000E+00
      21     1     1     2   503   512 -2.002422137E+00 -3.476391923E+01 -2.099024418E+01  4.065870295E+01  1.118282261E-06  0.00000E+00  9.000E+00
#rwgt            1           9  0.24413682800572151                4     2802821           0
</event>
<event>
      6   9999  3.45752E-01  2.67295E+01 -1.00000E+00  1.51156E-01
      21    -1     0     0   501   502  0.000000000E+00  0.000000000E+00  1.793454783E+01  1.793454783E+01  0.000000000E+00  0.00000E+00  9.000E+00
      21    -1     0     0   502   511  0.000000000E+00  0.000000000E+00 -1.119351447E+03  1.119351447E+03  0.000000000E+00  0.00000E+00  9.000E+00
      25     1     1     2     0     0 -2.899967993E+01 -3.185498534E+01 -8.069848743E+02  8.177440965E+02  1.250003939E+02  0.00000E+00  9.000E+00
       5     1     1     2   501     0  6.363267105E+00 -2.467967976E+00  3.257159068E+00  8.930488193E+00  4.750000000E+00  0.00000E+00  9.000E+00
      -5     1     1     2     0   503  4.650595869E+01  2.229347346E+01 -1.169300548E+02  1.278866817E+02  4.750000000E+00  0.00000E+00  9.000E+00
      21     1     1     2   503   511 -2.386954586E+01  1.202947985E+01 -1.807591290E+02  1.827247282E+02  2.697398305E-06  0.00000E+00  9.000E+00
#rwgt            1           9   5.4323087561086706E-005           4     2804797           0
</event>
<event>
      6   9999  3.45752E-01  3.78799E+00 -1.00000E+00  2.52849E-01
      21    -1     0     0   501   502  0.000000000E+00  0.000000000E+00  2.138057085E+03  2.138057085E+03  0.000000000E+00  0.00000E+00  9.000E+00
      21    -1     0     0   502   512  0.000000000E+00  0.000000000E+00 -1.111730358E+02  1.111730358E+02  0.000000000E+00  0.00000E+00  9.000E+00
      25     1     1     2     0     0 -1.045695965E+01 -4.354967320E+00  1.699834587E+03  1.704462345E+03  1.250037925E+02  0.00000E+00  9.000E+00
       5     1     1     2   501     0  2.445491284E-01 -1.006781026E+00  3.870457113E+02  3.870762439E+02  4.750000000E+00  0.00000E+00  9.000E+00
      -5     1     1     2     0   503  1.002138718E+01  1.578573119E+00  4.817183745E+01  4.945713819E+01  4.750000000E+00  0.00000E+00  9.000E+00
      21     1     1     2   503   512  1.910233467E-01  3.783175226E+00 -1.081680869E+02  1.082343935E+02  5.223489356E-06  0.00000E+00  9.000E+00
#rwgt            1           9   8.1282842387567125E-004           4     2806043           0
</event>
<event>
      6   9999  3.45752E-01  1.25465E+01 -1.00000E+00  1.77380E-01
      21    -1     0     0   501   502  0.000000000E+00  0.000000000E+00  7.869914066E+00  7.869914066E+00  0.000000000E+00  0.00000E+00  9.000E+00
      21    -1     0     0   502   511  0.000000000E+00  0.000000000E+00 -8.423836103E+02  8.423836103E+02  0.000000000E+00  0.00000E+00  9.000E+00
      25     1     1     2     0     0 -6.149884613E+00 -6.804889178E+00 -7.052112275E+02  7.162648110E+02  1.250131052E+02  0.00000E+00  9.000E+00
       5     1     1     2   501     0 -4.212519233E-01 -4.667025784E-01 -4.433784434E+00  6.528109136E+00  4.750000000E+00  0.00000E+00  9.000E+00
      -5     1     1     2     0   503 -5.315966401E+00  3.257806490E+00 -1.544542678E+01  1.732040734E+01  4.750000000E+00  0.00000E+00  9.000E+00
      21     1     1     2   503   511  1.188710294E+01  4.013785266E+00 -1.094232575E+02  1.101401969E+02  1.348699152E-06  0.00000E+00  9.000E+00
#rwgt            1           9   6.3281048253193903E-004           4     2811000           0
</event>
<event>
      6   9999  3.45752E-01  1.60275E+01 -1.00000E+00  1.67915E-01
      21    -1     0     0   512   502  0.000000000E+00  0.000000000E+00  5.296794374E+01  5.296794374E+01  0.000000000E+00  0.00000E+00  9.000E+00
      21    -1     0     0   502   503  0.000000000E+00  0.000000000E+00 -8.565350282E+02  8.565350282E+02  0.000000000E+00  0.00000E+00  9.000E+00
      25     1     1     2     0     0 -1.014195687E+00 -5.746829794E+01 -4.796573396E+02  4.989982517E+02  1.249978317E+02  0.00000E+00  9.000E+00
       5     1     1     2   501     0 -4.260257595E-01 -1.237619799E+00 -1.873573067E+00  5.271240533E+00  4.750000000E+00  0.00000E+00  9.000E+00
      -5     1     1     2     0   503 -4.453632143E+00  4.380149439E+01 -3.606849718E+02  3.633931991E+02  4.750000000E+00  0.00000E+00  9.000E+00
      21     1     1     2   512   501  5.893853589E+00  1.490442335E+01  3.864879997E+01  4.184028064E+01  2.132480600E-06  0.00000E+00  9.000E+00
#rwgt            1           9   2.4592266352118844E-004           4     2812529           0
</event>
<event>
      6   9999 -3.45752E-01  8.18287E+02 -1.00000E+00  9.12195E-02
      21    -1     0     0   501   511  0.000000000E+00  0.000000000E+00  1.201825874E+03  1.201825874E+03  0.000000000E+00  0.00000E+00  9.000E+00
      21    -1     0     0   502   503  0.000000000E+00  0.000000000E+00 -3.392320744E+03  3.392320744E+03  0.000000000E+00  0.00000E+00  9.000E+00
      25     1     1     2     0     0  3.459924966E+02 -3.153206593E+01 -2.660122016E+03  2.685624511E+03  1.249991742E+02  0.00000E+00  9.000E+00
       5     1     1     2   501     0  4.321885270E+02  2.961401571E+02 -5.542268442E+01  5.268587590E+02  4.750000000E+00  0.00000E+00  9.000E+00
      -5     1     1     2     0   503 -3.087125377E+01  6.874211031E+01 -2.460055841E+02  2.573321238E+02  4.750000000E+00  0.00000E+00  9.000E+00
      21     1     1     2   502   511 -7.473097699E+02 -3.333502015E+02  7.710554146E+02  1.124331224E+03  1.868812365E-05  0.00000E+00  9.000E+00
#rwgt            1           9  -1.7508671827978488E-003           4     2814212           0
</event>
<event>
      6   9999  3.45752E-01  5.15140E+00 -1.00000E+00  2.23719E-01
      21    -1     0     0   501   512  0.000000000E+00  0.000000000E+00  1.586113725E+02  1.586113725E+02  0.000000000E+00  0.00000E+00  9.000E+00
      21    -1     0     0   502   503  0.000000000E+00  0.000000000E+00 -2.953801094E+02  2.953801094E+02  0.000000000E+00  0.00000E+00  9.000E+00
      25     1     1     2     0     0  6.111097459E+00  5.394724426E+00 -1.703751885E+02  2.114632442E+02  1.249902005E+02  0.00000E+00  9.000E+00
       5     1     1     2   501     0 -5.794625819E+00 -1.577497695E+00  5.492578701E+01  5.545692713E+01  4.750000000E+00  0.00000E+00  9.000E+00
      -5     1     1     2     0   503 -3.276995409E+00  3.984801724E-01 -1.040348517E+02  1.041955390E+02  4.750000000E+00  0.00000E+00  9.000E+00
      21     1     1     2   502   512  2.960523769E+00 -4.215706903E+00  8.271551623E+01  8.287577156E+01  1.348699152E-06  0.00000E+00  9.000E+00
#rwgt            1           9   147.27543965637361                4     2814472           0
</event>
<event>
      6   9999  3.45752E-01  2.13927E+01 -1.00000E+00  1.58010E-01
      21    -1     0     0   502   503  0.000000000E+00  0.000000000E+00  7.339613373E+01  7.339613373E+01  0.000000000E+00  0.00000E+00  9.000E+00
      21    -1     0     0   511   502  0.000000000E+00  0.000000000E+00 -1.053307534E+02  1.053307534E+02  0.000000000E+00  0.00000E+00  9.000E+00
      25     1     1     2     0     0  1.388985410E+01 -1.701855613E+01 -3.347431899E+00  1.269574922E+02  1.249977609E+02  0.00000E+00  9.000E+00
       5     1     1     2   501     0  1.631177965E-01  8.114080095E-01 -2.734203482E+00  5.542865599E+00  4.750000000E+00  0.00000E+00  9.000E+00
      -5     1     1     2     0   503  4.178985995E+00  5.015894625E+00  4.383859154E+00  9.187156466E+00  4.750000000E+00  0.00000E+00  9.000E+00
      21     1     1     2   511   501 -1.823195789E+01  1.119125349E+01 -3.023684343E+01  3.703937289E+01  4.768371582E-07  0.00000E+00  9.000E+00
#rwgt            1           9   1824.6168525069606                4     2819854           0
</event>
<event>
      6   9999  3.45752E-01  4.66119E+01 -1.00000E+00  1.36439E-01
      -4    -1     0     0     0   502  0.000000000E+00  0.000000000E+00  5.584815086E+01  5.584815086E+01  0.000000000E+00  0.00000E+00  9.000E+00
      21    -1     0     0   501   512  0.000000000E+00  0.000000000E+00 -5.560988388E+02  5.560988388E+02  0.000000000E+00  0.00000E+00  9.000E+00
      25     1     1     2     0     0  2.460385498E+00 -3.050469496E+01 -5.354212506E+01  1.393858295E+02  1.250002416E+02  0.00000E+00  9.000E+00
       5     1     1     2   501     0 -5.350558525E+01  1.308282923E+01 -1.175191852E+02  1.298742833E+02  4.750000000E+00  0.00000E+00  9.000E+00
      -5     1     1     2     0   502  2.934691989E+01 -2.383162685E+01 -7.355538716E+01  8.283806870E+01  4.750000000E+00  0.00000E+00  9.000E+00
      -4     1     1     2     0   512  2.169827986E+01  4.125349258E+01 -2.556339905E+02  2.598488081E+02  2.697398305E-06  0.00000E+00  9.000E+00
#rwgt            1           5   2.0483631685925006                4     2821063           0
</event>
<event>
      6   9999  3.45752E-01  1.82054E+01 -1.00000E+00  1.63391E-01
      -2    -1     0     0     0   502  0.000000000E+00  0.000000000E+00  3.803043835E+01  3.803043835E+01  0.000000000E+00  0.00000E+00  9.000E+00
       2    -1     0     0   511     0  0.000000000E+00  0.000000000E+00 -1.305536740E+03  1.305536740E+03  0.000000000E+00  0.00000E+00  9.000E+00
      25     1     1     2     0     0  2.384724686E+01  9.581161583E+01 -1.809564145E+02  2.410787934E+02  1.250008151E+02  0.00000E+00  9.000E+00
       5     1     1     2   501     0  5.769270777E+01 -3.560235245E+01 -6.728409438E+02  6.762643523E+02  4.750000000E+00  0.00000E+00  9.000E+00
      -5     1     1     2     0   502 -6.865364315E+01 -4.734923358E+01 -3.173141720E+02  3.281251573E+02  4.750000000E+00  0.00000E+00  9.000E+00
      21     1     1     2   511   501 -1.288631147E+01 -1.286002980E+01 -9.639477136E+01  9.809887530E+01  1.907348633E-06  0.00000E+00  9.000E+00
#rwgt            1           3   4.3989603948384198E-004           4     2821379           0
</event>
<event>
      6   9999  3.45752E-01  1.83379E+01 -1.00000E+00  1.63141E-01
      21    -1     0     0   501   502  0.000000000E+00  0.000000000E+00  2.639237223E+03  2.639237223E+03  0.000000000E+00  0.00000E+00  9.000E+00
      21    -1     0     0   502   512  0.000000000E+00  0.000000000E+00 -3.295402287E+01  3.295402287E+01  0.000000000E+00  0.00000E+00  9.000E+00
      25     1     1     2     0     0  2.113391330E+00  8.563931107E+00  3.872867577E+02  4.070541917E+02  1.249970997E+02  0.00000E+00  9.000E+00
       5     1     1     2   501     0 -1.477403253E+01 -1.847686498E+01  2.223826251E+03  2.223957154E+03  4.750000000E+00  0.00000E+00  9.000E+00
      -5     1     1     2     0   503  5.942173700E+00 -7.149956378E+00  1.226714869E+01  1.610828177E+01  4.750000000E+00  0.00000E+00  9.000E+00
      21     1     1     2   503   512  6.718467496E+00  1.706289025E+01 -1.709695801E+01  2.507161747E+01  1.966049969E-06  0.00000E+00  9.000E+00
#rwgt            1           9   1.8417627998440653                4     2826158           0
</event>
<event>
      6   9999  3.45752E-01  3.52803E+01 -1.00000E+00  1.43423E-01
      21    -1     0     0   501   502  0.000000000E+00  0.000000000E+00  9.472028932E+01  9.472028932E+01  0.000000000E+00  0.00000E+00  9.000E+00
      21    -1     0     0   511   503  0.000000000E+00  0.000000000E+00 -1.758071489E+03  1.758071489E+03  0.000000000E+00  0.00000E+00  9.000E+00
      25     1     1     2     0     0 -1.877532213E+01 -1.923018817E+02 -1.074160904E+03  1.098534700E+03  1.249972527E+02  0.00000E+00  9.000E+00
       5     1     1     2   501     0 -2.591210190E+00 -3.922016213E+00  5.814052207E+01  5.852332345E+01  4.750000000E+00  0.00000E+00  9.000E+00
      -5     1     1     2     0   503 -5.551854464E+00  2.190295912E+02 -5.409779402E+02  5.836818304E+02  4.750000000E+00  0.00000E+00  9.000E+00
      21     1     1     2   511   502  2.691838678E+01 -2.280569325E+01 -1.063528778E+02  1.120519246E+02  1.348699152E-06  0.00000E+00  9.000E+00
#rwgt            1           9   2.2753925987192591E-005           4     2828116           0
</event>
<event>
      6   9999  3.45752E-01  2.86243E+01 -1.00000E+00  1.49169E-01
      21    -1     0     0   512   502  0.000000000E+00  0.000000000E+00  3.678412311E+01  3.678412311E+01  0.000000000E+00  0.00000E+00  9.000E+00
      21    -1     0     0   502   503  0.000000000E+00  0.000000000E+00 -7.443279740E+02  7.443279740E+02  0.000000000E+00  0.00000E+00  9.000E+00
      25     1     1     2     0     0 -2.057748044E+01  7.396467440E+00 -5.920111072E+02  6.054615652E+02  1.250136611E+02  0.00000E+00  9.000E+00
       5     1     1     2   501     0  7.520729214E+00  1.744351247E+01 -1.191536882E+02  1.207518174E+02  4.750000000E+00  0.00000E+00  9.000E+00
      -5     1     1     2     0   503 -7.196764440E-01  2.510739564E-01 -1.825117008E+01  1.887455116E+01  4.750000000E+00  0.00000E+00  9.000E+00
      21     1     1     2   512   501  1.377642767E+01 -2.509105387E+01  2.187211463E+01  3.602416331E+01  1.238859277E-06  0.00000E+00  9.000E+00
#rwgt            1           9   4.1815799128358524E-003           4     2830140           0
</event>
<event>
      6   9999  3.45752E-01  3.69895E+01 -1.00000E+00  1.42186E-01
      21    -1     0     0   501   511  0.000000000E+00  0.000000000E+00  8.818825397E+02  8.818825397E+02  0.000000000E+00  0.00000E+00  9.000E+00
      21    -1     0     0   502   503  0.000000000E+00  0.000000000E+00 -4.906738038E+02  4.906738038E+02  0.000000000E+00  0.00000E+00  9.000E+00
      25     1     1     2     0     0  2.959456253E+00 -4.550864304E+01 -4.236757783E+02  4.440763856E+02  1.249915044E+02  0.00000E+00  9.000E+00
       5     1     1     2   501     0 -5.317255397E+00  5.383122939E+00  2.726083286E+02  2.727546783E+02  4.750000000E+00  0.00000E+00  9.000E+00
      -5     1     1     2     0   503 -2.627496372E+01  1.670790321E+01 -5.173206126E+01  6.056646275E+01  4.750000000E+00  0.00000E+00  9.000E+00
      21     1     1     2   502   511  2.863276286E+01  2.341761689E+01  5.940082469E+02  5.951588168E+02  0.000000000E+00  0.00000E+00  9.000E+00
#rwgt            1           9   1.7611221348999930E-003           4     2831018           0
</event>
<event>
      6   9999  3.45752E-01  2.08871E+01 -1.00000E+00  1.58785E-01
      21    -1     0     0   502   503  0.000000000E+00  0.000000000E+00  2.584851825E+02  2.584851825E+02  0.000000000E+00  0.00000E+00  9.000E+00
       2    -1     0     0   501     0  0.000000000E+00  0.000000000E+00 -7.998469334E+02  7.998469334E+02  0.000000000E+00  0.00000E+00  9.000E+00
      25     1     1     2     0     0 -1.125601925E+02  1.423619248E+02 -3.666939297E+02  4.278150291E+02  1.249981858E+02  0.00000E+00  9.000E+00
       5     1     1     2   501     0  5.491828675E-01  1.689924682E-01  1.389460375E+01  1.469532829E+01  4.750000000E+00  0.00000E+00  9.000E+00
      -5     1     1     2     0   503  1.328955308E+02 -1.422030672E+02  1.689025339E+02  2.577470910E+02  4.750000000E+00  0.00000E+00  9.000E+00
       2     1     1     2   502     0 -2.088452118E+01 -3.278501028E-01 -3.574649588E+02  3.580746675E+02  5.394796609E-06  0.00000E+00  9.000E+00
#rwgt            1           9   1.5910082868829357E-003           4     2833163           0
</event>
<event>
      6   9999  3.45752E-01  6.81999E+00 -1.00000E+00  2.06591E-01
      21    -1     0     0   502   503  0.000000000E+00  0.000000000E+00  1.950438836E+02  1.950438836E+02  0.000000000E+00  0.00000E+00  9.000E+00
      21    -1     0     0   511   502  0.000000000E+00  0.000000000E+00 -3.271449864E+01  3.271449864E+01  0.000000000E+00  0.00000E+00  9.000E+00
      25     1     1     2     0     0  1.014949512E+00 -1.585272105E+01  1.547413024E+02  1.995485050E+02  1.249895848E+02  0.00000E+00  9.000E+00
       5     1     1     2   501     0  1.989222423E+00  5.170873781E-01  1.032481572E+00  5.277584997E+00  4.750000000E+00  0.00000E+00  9.000E+00
      -5     1     1     2     0   503 -5.847605071E+00  9.136664874E+00  9.808102959E+00  1.537642721E+01  4.750000000E+00  0.00000E+00  9.000E+00
      21     1     1     2   511   501  2.843433136E+00  6.198968795E+00 -3.252502006E+00  7.555864968E+00  1.192092896E-07  0.00000E+00  9.000E+00
#rwgt            1           9   41.480653652081564                4     2836181           0
</event>
<event>
      6   9999 -3.45752E-01  8.02878E+00 -1.00000E+00  1.97831E-01
      21    -1     0     0   501   502  0.000000000E+00  0.000000000E+00  1.083020650E+01  1.083020650E+01  0.000000000E+00  0.00000E+00  9.000E+00
      21    -1     0     0   502   512  0.000000000E+00  0.000000000E+00 -9.036602433E+02  9.036602433E+02  0.000000000E+00  0.00000E+00  9.000E+00
      25     1     1     2     0     0 -3.377544705E+01 -6.115234800E+00 -4.673224605E+02  4.849684436E+02  1.250037291E+02  0.00000E+00  9.000E+00
       5     1     1     2   501     0 -2.045025912E+00 -2.727809759E+00 -5.641306367E+01  5.671524777E+01  4.750000000E+00  0.00000E+00  9.000E+00
      -5     1     1     2     0   503  3.950242925E+01  1.597778820E+01 -2.695110739E+02  2.729001889E+02  4.750000000E+00  0.00000E+00  9.000E+00
      21     1     1     2   503   512 -3.681956284E+00 -7.134743638E+00 -9.958343874E+01  9.990656955E+01  1.348699152E-06  0.00000E+00  9.000E+00
#rwgt            1           9  -2.4006430421465905E-003           4     2839201           0
</event>
<event>
      6   9999  3.45752E-01  1.98658E+01 -1.00000E+00  1.60434E-01
      21    -1     0     0   511   503  0.000000000E+00  0.000000000E+00  2.092160163E+01  2.092160163E+01  0.000000000E+00  0.00000E+00  9.000E+00
      21    -1     0     0   501   502  0.000000000E+00  0.000000000E+00 -1.044695317E+03  1.044695317E+03  0.000000000E+00  0.00000E+00  9.000E+00
      25     1     1     2     0     0 -1.422554992E+01  2.710403311E+01 -2.151769453E+02  2.507253272E+02  1.250003082E+02  0.00000E+00  9.000E+00
       5     1     1     2   501     0  8.917699463E+00 -1.302665686E+01 -7.377639945E+02  7.379481644E+02  4.750000000E+00  0.00000E+00  9.000E+00
      -5     1     1     2     0   503  2.103237371E+00  5.528251320E+00 -7.912553635E+00  1.096157722E+01  4.750000000E+00  0.00000E+00  9.000E+00
      21     1     1     2   511   502  3.204613089E+00 -1.960562758E+01 -6.292022148E+01  6.598184939E+01  6.743495762E-07  0.00000E+00  9.000E+00
#rwgt            1           9   2.2049547591230630E-004           4     2841872           0
</event>
<event>
      6   9999 -3.45752E-01  4.48543E+00 -1.00000E+00  2.37985E-01
      21    -1     0     0   501   502  0.000000000E+00  0.000000000E+00  1.227599175E+01  1.227599175E+01  0.000000000E+00  0.00000E+00  9.000E+00
      21    -1     0     0   512   503  0.000000000E+00  0.000000000E+00 -1.580312656E+03  1.580312656E+03  0.000000000E+00  0.00000E+00  9.000E+00
      25     1     1     2     0     0 -1.587506492E+01 -1.079449209E+01 -7.857884654E+02  7.959026227E+02  1.250157340E+02  0.00000E+00  9.000E+00
       5     1     1     2   501     0  1.152377302E+00 -1.831200464E+00  2.549262646E+00  5.808830229E+00  4.750000000E+00  0.00000E+00  9.000E+00
      -5     1     1     2     0   503  1.340020610E+01  8.339654301E+00 -1.935801494E+01  2.542460619E+01  4.750000000E+00  0.00000E+00  9.000E+00
      21     1     1     2   512   502  1.322481524E+00  4.286038257E+00 -7.654394462E+02  7.654525883E+02  1.525878906E-05  0.00000E+00  9.000E+00
#rwgt            1           9  -5.8440667958663664E-005           4     2843952           0
</event>
<event>
      6   9999  3.45752E-01  1.29566E+01 -1.00000E+00  1.76074E-01
      21    -1     0     0   501   511  0.000000000E+00  0.000000000E+00  2.658137143E+01  2.658137143E+01  0.000000000E+00  0.00000E+00  9.000E+00
      21    -1     0     0   502   503  0.000000000E+00  0.000000000E+00 -2.426854683E+02  2.426854683E+02  0.000000000E+00  0.00000E+00  9.000E+00
      25     1     1     2     0     0 -1.018986730E+01  1.182003586E+01 -2.084747801E+02  2.435800297E+02  1.250038011E+02  0.00000E+00  9.000E+00
       5     1     1     2   501     0 -4.230952334E-01  7.733327640E-01 -1.344305899E+00  5.014649688E+00  4.750000000E+00  0.00000E+00  9.000E+00
      -5     1     1     2     0   503  4.572029767E+00 -1.131183515E+00 -1.463095467E+00  6.847348442E+00  4.750000000E+00  0.00000E+00  9.000E+00
      21     1     1     2   502   511  6.040932766E+00 -1.146218511E+01 -4.821915401E+00  1.382481191E+01  1.884864366E-07  0.00000E+00  9.000E+00
#rwgt            1           9   7.3438390966822445E-005           4     2848501           0
</event>
<event>
      6   9999  3.45752E-01  8.68664E+00 -1.00000E+00  1.93874E-01
      21    -1     0     0   502   503  0.000000000E+00  0.000000000E+00  7.292324251E+00  7.292324251E+00  0.000000000E+00  0.00000E+00  9.000E+00
      21    -1     0     0   501   512  0.000000000E+00  0.000000000E+00 -1.004123656E+03  1.004123656E+03  0.000000000E+00  0.00000E+00  9.000E+00
      25     1     1     2     0     0  1.021168304E+01  1.532598956E+01 -5.967497208E+02  6.099781895E+02  1.249959917E+02  0.00000E+00  9.000E+00
       5     1     1     2   501     0 -1.202938474E+00 -3.390468139E-01 -2.234055290E+01  2.287410802E+01  4.750000000E+00  0.00000E+00  9.000E+00
      -5     1     1     2     0   503 -6.996770946E+00 -6.536516931E+00 -8.182365713E+01  8.251881133E+01  4.750000000E+00  0.00000E+00  9.000E+00
      21     1     1     2   502   512 -2.011973622E+00 -8.450425817E+00 -2.959174012E+02  2.960448718E+02  6.607249480E-06  0.00000E+00  9.000E+00
#rwgt            1           9   2.0239612594991858E-002           4     2850219           0
</event>
<event>
      6   9999  3.45752E-01  4.63348E+00 -1.00000E+00  2.35336E-01
      21    -1     0     0   501   502  0.000000000E+00  0.000000000E+00  5.382661079E+00  5.382661079E+00  0.000000000E+00  0.00000E+00  9.000E+00
       2    -1     0     0   502     0  0.000000000E+00  0.000000000E+00 -3.788284517E+03  3.788284517E+03  0.000000000E+00  0.00000E+00  9.000E+00
      25     1     1     2     0     0 -9.580897550E+00 -1.046580470E+01 -1.715916273E+03  1.720522301E+03  1.250080276E+02  0.00000E+00  9.000E+00
       5     1     1     2   501     0  3.456885482E+00 -1.811640311E+00 -1.791894258E-01  6.150341999E+00  4.750000000E+00  0.00000E+00  9.000E+00
      -5     1     1     2     0   503  1.051486729E+01  1.079772848E+01 -6.922898924E+02  6.924702239E+02  4.750000000E+00  0.00000E+00  9.000E+00
       2     1     1     2   503     0 -4.390855219E+00  1.479716532E+00 -1.374516501E+03  1.374524311E+03  0.000000000E+00  0.00000E+00  9.000E+00
#rwgt            1           9   2.6085927246297914E-003           4     2852978           0
</event>
<event>
      6   9999  3.45752E-01  7.70893E+00 -1.00000E+00  1.99940E-01
      21    -1     0     0   511   502  0.000000000E+00  0.000000000E+00  1.652586088E+01  1.652586088E+01  0.000000000E+00  0.00000E+00  9.000E+00
      21    -1     0     0   502   503  0.000000000E+00  0.000000000E+00 -1.007765913E+03  1.007765913E+03  0.000000000E+00  0.00000E+00  9.000E+00
      25     1     1     2     0     0  2.464903008E+00  1.409017161E+00 -9.098244952E+02  9.183750975E+02  1.249965860E+02  0.00000E+00  9.000E+00
       5     1     1     2   501     0  2.459363651E+00  3.353657969E+00  9.996849812E+00  1.182349346E+01  4.750000000E+00  0.00000E+00  9.000E+00
      -5     1     1     2     0   503 -8.793246609E-01  1.799800910E+00 -8.086369654E+01  8.102784961E+01  4.750000000E+00  0.00000E+00  9.000E+00
      21     1     1     2   511   501 -4.044941998E+00 -6.562476039E+00 -1.054871000E+01  1.306533314E+01  3.153981341E-07  0.00000E+00  9.000E+00
#rwgt            1           9   8.7345501012117677E-004           4     2857712           0
</event>
<event>
      6   9999  3.45752E-01  1.71251E+01 -1.00000E+00  1.65531E-01
      21    -1     0     0   501   502  0.000000000E+00  0.000000000E+00  1.023339088E+02  1.023339088E+02  0.000000000E+00  0.00000E+00  9.000E+00
      21    -1     0     0   512   503  0.000000000E+00  0.000000000E+00 -1.616481172E+03  1.616481172E+03  0.000000000E+00  0.00000E+00  9.000E+00
      25     1     1     2     0     0  2.253932537E+01 -7.803401303E+01 -1.155781096E+03  1.165355031E+03  1.250003143E+02  0.00000E+00  9.000E+00
       5     1     1     2   501     0 -3.987686592E+00  1.225416154E+00  9.146014398E+01  9.167837109E+01  4.750000000E+00  0.00000E+00  9.000E+00
      -5     1     1     2     0   503 -2.166690424E+00  8.178890226E+01 -4.144858451E+02  4.225105884E+02  4.750000000E+00  0.00000E+00  9.000E+00
      21     1     1     2   512   502 -1.638494835E+01 -4.980305388E+00 -3.534046630E+01  3.927109029E+01  4.768371582E-07  0.00000E+00  9.000E+00
#rwgt            1           9   8.4121143906539913E-005           4     2861130           0
</event>
<event>
      6   9999  3.45752E-01  7.21338E+00 -1.00000E+00  2.03490E-01
       2    -1     0     0   501     0  0.000000000E+00  0.000000000E+00  5.684519885E+01  5.684519885E+01  0.000000000E+00  0.00000E+00  9.000E+00
      21    -1     0     0   502   503  0.000000000E+00  0.000000000E+00 -2.214494073E+02  2.214494073E+02  0.000000000E+00  0.00000E+00  9.000E+00
      25     1     1     2     0     0 -1.461893614E+01 -4.352316152E+00 -1.427823336E+02  1.903823717E+02  1.250039868E+02  0.00000E+00  9.000E+00
       5     1     1     2   501     0 -1.688381677E+00 -8.154814218E+00 -2.888113617E+00  1.001275826E+01  4.750000000E+00  0.00000E+00  9.000E+00
      -5     1     1     2     0   503  1.405066962E+01  5.655821815E+00 -4.664123993E+01  4.926842193E+01  4.750000000E+00  0.00000E+00  9.000E+00
       2     1     1     2   502     0  2.256648194E+00  6.851308555E+00  2.770747871E+01  2.863105423E+01  7.539457465E-07  0.00000E+00  9.000E+00
#rwgt            1           9   9.9458677507193247                4     2864850           0
</event>
<event>
      6   9999  3.45752E-01  3.76646E+00 -1.00000E+00  2.53385E-01
      21    -1     0     0   501   502  0.000000000E+00  0.000000000E+00  2.498641025E+01  2.498641025E+01  0.000000000E+00  0.00000E+00  9.000E+00
      21    -1     0     0   502   511  0.000000000E+00  0.000000000E+00 -1.122778326E+03  1.122778326E+03  0.000000000E+00  0.00000E+00  9.000E+00
      25     1     1     2     0     0 -1.865693527E+01 -5.154599841E+01 -4.254731759E+02  4.468300811E+02  1.249985068E+02  0.00000E+00  9.000E+00
       5     1     1     2   501     0 -3.073182887E+00 -4.385368070E+00  1.199810856E+01  1.397114939E+01  4.750000000E+00  0.00000E+00  9.000E+00
      -5     1     1     2     0   503  2.025390369E+01  5.246624973E+01 -6.469899207E+02  6.494470325E+02  4.750000000E+00  0.00000E+00  9.000E+00
      21     1     1     2   503   511  1.476214459E+00  3.465116751E+00 -3.732692726E+01  3.751647294E+01  0.000000000E+00  0.00000E+00  9.000E+00
#rwgt            1           9   3.5988603280200402E-004           4     2867605           0
</event>
<event>
      6   9999  3.45752E-01  1.05636E+01 -1.00000E+00  1.84720E-01
      21    -1     0     0   501   512  0.000000000E+00  0.000000000E+00  2.382605428E+01  2.382605428E+01  0.000000000E+00  0.00000E+00  9.000E+00
      21    -1     0     0   502   503  0.000000000E+00  0.000000000E+00 -9.833226977E+02  9.833226977E+02  0.000000000E+00  0.00000E+00  9.000E+00
      25     1     1     2     0     0 -4.583241447E+01  2.144665170E+01 -8.769179739E+02  8.872263364E+02  1.249994801E+02  0.00000E+00  9.000E+00
       5     1     1     2   501     0  1.140228048E+00 -1.972710356E+00  1.024165742E+01  1.151719379E+01  4.750000000E+00  0.00000E+00  9.000E+00
      -5     1     1     2     0   503  3.552479984E+01 -2.472254666E+01 -8.411855904E+01  9.471911207E+01  4.750000000E+00  0.00000E+00  9.000E+00
      21     1     1     2   502   512  9.167386574E+00  5.248605316E+00 -8.701767969E+00  1.368610975E+01  2.384185791E-07  0.00000E+00  9.000E+00
#rwgt            1           9   6.1770242675894607E-003           4     2874053           0
</event>
<event>
      6   9999 -3.45752E-01  2.77985E+01 -1.00000E+00  1.50012E-01
      21    -1     0     0   511   503  0.000000000E+00  0.000000000E+00  4.451624472E+00  4.451624472E+00  0.000000000E+00  0.00000E+00  9.000E+00
      21    -1     0     0   501   502  0.000000000E+00  0.000000000E+00 -2.629030667E+03  2.629030667E+03  0.000000000E+00  0.00000E+00  9.000E+00
      25     1     1     2     0     0  4.138359915E+00 -2.609249805E+01 -1.754435079E+03  1.759081345E+03  1.250071433E+02  0.00000E+00  9.000E+00
       5     1     1     2   501     0  2.004447706E+00 -6.160014611E-01 -5.201749291E+02  5.202008426E+02  4.750000000E+00  0.00000E+00  9.000E+00
      -5     1     1     2     0   503 -1.963616526E+01  2.404513473E+00 -7.123722091E+01  7.408552365E+01  4.750000000E+00  0.00000E+00  9.000E+00
      21     1     1     2   511   502  1.349335764E+01  2.430398604E+01 -2.787318129E+02  2.801145801E+02  0.000000000E+00  0.00000E+00  9.000E+00
#rwgt            1           9  -1.8982958077140857E-002           4     2877025           0
</event>
<event>
      6   9999  3.45752E-01  1.42463E+01 -1.00000E+00  1.72335E-01
      21    -1     0     0   501   502  0.000000000E+00  0.000000000E+00  6.079458533E+01  6.079458533E+01  0.000000000E+00  0.00000E+00  9.000E+00
      21    -1     0     0   502   512  0.000000000E+00  0.000000000E+00 -3.710108475E+02  3.710108475E+02  0.000000000E+00  0.00000E+00  9.000E+00
      25     1     1     2     0     0  2.262897514E+00  1.526794041E+01 -2.391229186E+02  2.702646555E+02  1.249999325E+02  0.00000E+00  9.000E+00
       5     1     1     2   501     0 -2.741855451E+00  1.797012651E+00  4.397961906E+01  4.435669531E+01  4.750000000E+00  0.00000E+00  9.000E+00
      -5     1     1     2     0   503  2.458461135E+00 -2.956863717E+00 -1.666491744E+01  1.775018444E+01  4.750000000E+00  0.00000E+00  9.000E+00
      21     1     1     2   503   512 -1.979503197E+00 -1.410808935E+01 -9.840804519E+01  9.943389752E+01  1.907348633E-06  0.00000E+00  9.000E+00
#rwgt            1           9   7.5943987889920761E-003           4     2877990           0
</event>
<event>
      6   9999  3.45752E-01  1.85181E+01 -1.00000E+00  1.62805E-01
      21    -1     0     0   502   511  0.000000000E+00  0.000000000E+00  3.073647231E+01  3.073647231E+01  0.000000000E+00  0.00000E+00  9.000E+00
      21    -1     0     0   501   502  0.000000000E+00  0.000000000E+00 -8.622838848E+02  8.622838848E+02  0.000000000E+00  0.00000E+00  9.000E+00
      25     1     1     2     0     0  1.335196413E+01  3.042462044E+01 -5.228360970E+02  5.385958094E+02  1.249957162E+02  0.00000E+00  9.000E+00
       5     1     1     2   501     0 -2.889298266E+00  2.361814384E+01 -1.127189031E+02  1.153008169E+02  4.750000000E+00  0.00000E+00  9.000E+00
      -5     1     1     2     0   503  7.966570165E+00 -5.585441931E+01 -2.089741975E+02  2.165085682E+02  4.750000000E+00  0.00000E+00  9.000E+00
      21     1     1     2   503   511 -1.842923603E+01  1.811655040E+00  1.298178511E+01  2.261516260E+01  7.152557373E-07  0.00000E+00  9.000E+00
#rwgt            1           9   3.0108647377325649E-002           4     2880506           0
</event>
<event>
      6   9999  3.45752E-01  1.06455E+01 -1.00000E+00  1.84377E-01
      21    -1     0     0   501   502  0.000000000E+00  0.000000000E+00  4.800766988E+01  4.800766988E+01  0.000000000E+00  0.00000E+00  9.000E+00
      21    -1     0     0   512   503  0.000000000E+00  0.000000000E+00 -1.392342155E+02  1.392342155E+02  0.000000000E+00  0.00000E+00  9.000E+00
      25     1     1     2     0     0  4.119725713E+00  6.576587701E+00 -8.256232061E+01  1.500054222E+02  1.249994651E+02  0.00000E+00  9.000E+00
       5     1     1     2   501     0  1.257437874E+00 -2.375817392E-01  9.748372553E+00  1.091928855E+01  4.750000000E+00  0.00000E+00  9.000E+00
      -5     1     1     2     0   503  3.941099311E+00 -1.191573171E+00 -1.716828051E+00  6.516295647E+00  4.750000000E+00  0.00000E+00  9.000E+00
      21     1     1     2   512   502 -9.318262898E+00 -5.147432791E+00 -1.669576948E+01  1.980087893E+01  0.000000000E+00  0.00000E+00  9.000E+00
#rwgt            1           9   1.0055494300082608E-002           4     2882133           0
</event>
<event>
      6   9999  3.45752E-01  1.69907E+01 -1.00000E+00  1.65811E-01
      21    -1     0     0   501   502  0.000000000E+00  0.000000000E+00  3.056327687E+02  3.056327687E+02  0.000000000E+00  0.00000E+00  9.000E+00
      21    -1     0     0   502   511  0.000000000E+00  0.000000000E+00 -5.097214737E+02  5.097214737E+02  0.000000000E+00  0.00000E+00  9.000E+00
      25     1     1     2     0     0  1.203522600E+01  2.222972205E+01 -3.506053429E+02  3.730801731E+02  1.250028076E+02  0.00000E+00  9.000E+00
       5     1     1     2   501     0  4.835298097E-01 -1.390657186E+01  2.914719937E+02  2.918426154E+02  4.750000000E+00  0.00000E+00  9.000E+00
      -5     1     1     2     0   503  4.323627802E+00 -6.083033573E+00 -6.601159936E+00  1.103788328E+01  4.750000000E+00  0.00000E+00  9.000E+00
      21     1     1     2   503   511 -1.684238361E+01 -2.240116621E+00 -1.383541959E+02  1.393935706E+02  1.907348633E-06  0.00000E+00  9.000E+00
#rwgt            1           9   8.4688497846234945E-004           4     2884334           0
</event>
<event>
      6   9999  3.45752E-01  7.51225E+00 -1.00000E+00  2.01306E-01
      21    -1     0     0   501   502  0.000000000E+00  0.000000000E+00  1.269091330E+01  1.269091330E+01  0.000000000E+00  0.00000E+00  9.000E+00
      21    -1     0     0   502   512  0.000000000E+00  0.000000000E+00 -1.051465925E+03  1.051465925E+03  0.000000000E+00  0.00000E+00  9.000E+00
      25     1     1     2     0     0  2.286841251E-03  1.268170350E+01 -8.740483026E+02  8.830325632E+02  1.250009868E+02  0.00000E+00  9.000E+00
       5     1     1     2   501     0 -8.929024385E-01 -2.014161582E+00  6.994227904E+00  8.737038721E+00  4.750000000E+00  0.00000E+00  9.000E+00
      -5     1     1     2     0   503 -3.477016382E+00 -4.555452949E+00 -9.895446276E+01  9.923401632E+01  4.750000000E+00  0.00000E+00  9.000E+00
      21     1     1     2   503   512  4.367631980E+00 -6.112088970E+00 -7.276647450E+01  7.315322038E+01  1.348699152E-06  0.00000E+00  9.000E+00
#rwgt            1           9   27.335880922859488                4     2887846           0
</event>
<event>
      6   9999  3.45752E-01  3.79852E+00 -1.00000E+00  2.52589E-01
      21    -1     0     0   511   502  0.000000000E+00  0.000000000E+00  1.126924096E+01  1.126924096E+01  0.000000000E+00  0.00000E+00  9.000E+00
      21    -1     0     0   502   503  0.000000000E+00  0.000000000E+00 -8.129642887E+02  8.129642887E+02  0.000000000E+00  0.00000E+00  9.000E+00
      25     1     1     2     0     0 -6.506739266E+00  1.446329158E+01 -3.669267644E+02  3.879580937E+02  1.249988302E+02  0.00000E+00  9.000E+00
       5     1     1     2   501     0 -2.061656459E+00 -1.171053111E+01 -3.017469252E+02  3.020184702E+02  4.750000000E+00  0.00000E+00  9.000E+00
      -5     1     1     2     0   503  4.927313454E+00 -3.835026534E+00 -1.262453971E+02  1.264889269E+02  4.750000000E+00  0.00000E+00  9.000E+00
      21     1     1     2   511   501  3.641082271E+00  1.082266057E+00 -6.775960955E+00  7.768038799E+00  0.000000000E+00  0.00000E+00  9.000E+00
#rwgt            1           9   9.1112941962846189E-005           4     2891534           0
</event>
<event>
      6   9999  3.45752E-01  7.68658E+00 -1.00000E+00  2.00093E-01
      21    -1     0     0   501   512  0.000000000E+00  0.000000000E+00  6.181187731E+01  6.181187731E+01  0.000000000E+00  0.00000E+00  9.000E+00
      21    -1     0     0   502   503  0.000000000E+00  0.000000000E+00 -6.879529113E+02  6.879529113E+02  0.000000000E+00  0.00000E+00  9.000E+00
      25     1     1     2     0     0 -1.185204397E+00  1.529330253E+01 -6.056142336E+02  6.185701822E+02  1.250007220E+02  0.00000E+00  9.000E+00
       5     1     1     2   501     0  1.127441069E-02  5.689112519E-01 -6.408812789E+00  7.997447623E+00  4.750000000E+00  0.00000E+00  9.000E+00
      -5     1     1     2     0   503  2.085102682E+00 -8.229834005E+00 -6.803903241E+01  6.873099921E+01  4.750000000E+00  0.00000E+00  9.000E+00
      21     1     1     2   502   512 -9.111726960E-01 -7.632379781E+00  5.392104487E+01  5.446615956E+01  1.651812370E-06  0.00000E+00  9.000E+00
#rwgt            1           9   1.1486365198643473E-002           4     2896873           0
</event>
<event>
      6   9999 -3.45752E-01  2.52888E+01 -1.00000E+00  1.52803E-01
      21    -1     0     0   502   511  0.000000000E+00  0.000000000E+00  6.255521159E+01  6.255521159E+01  0.000000000E+00  0.00000E+00  9.000E+00
      21    -1     0     0   501   502  0.000000000E+00  0.000000000E+00 -1.207166429E+03  1.207166429E+03  0.000000000E+00  0.00000E+00  9.000E+00
      25     1     1     2     0     0 -1.724962272E+02 -8.328052353E+01 -9.550932258E+02  9.820991887E+02  1.250006098E+02  0.00000E+00  9.000E+00
       5     1     1     2   501     0  5.118529278E+00  1.419773954E+00 -1.471500275E+01  1.634958428E+01  4.750000000E+00  0.00000E+00  9.000E+00
      -5     1     1     2     0   503  1.446357560E+02  7.080052085E+01 -1.838177434E+02  2.444253280E+02  4.750000000E+00  0.00000E+00  9.000E+00
      21     1     1     2   503   511  2.274194198E+01  1.106022873E+01  9.014754568E+00  2.684753964E+01  1.011524364E-06  0.00000E+00  9.000E+00
#rwgt            1           9  -2.3155076565011341                4     2899532           0
</event>
<event>
      6   9999  3.45752E-01  2.93433E+01 -1.00000E+00  1.48462E-01
      21    -1     0     0   502   503  0.000000000E+00  0.000000000E+00  2.250324731E+02  2.250324731E+02  0.000000000E+00  0.00000E+00  9.000E+00
      21    -1     0     0   512   502  0.000000000E+00  0.000000000E+00 -4.743155496E+02  4.743155496E+02  0.000000000E+00  0.00000E+00  9.000E+00
      25     1     1     2     0     0 -2.178413772E+01 -1.812564088E+01  1.748389015E+02  2.167843986E+02  1.249949858E+02  0.00000E+00  9.000E+00
       5     1     1     2   501     0  8.762873802E-01  6.942124603E+00 -4.269595119E+02  4.270432627E+02  4.750000000E+00  0.00000E+00  9.000E+00
      -5     1     1     2     0   503 -6.673986819E+00  1.169980117E+00  1.991756581E+01  2.156809869E+01  4.750000000E+00  0.00000E+00  9.000E+00
      21     1     1     2   512   501  2.758183716E+01  1.001353615E+01 -1.708003196E+01  3.395226265E+01  4.129530925E-07  0.00000E+00  9.000E+00
#rwgt            1           9   4.8644161585311121                4     2901965           0
</event>
<event>
      6   9999  3.45752E-01  2.05009E+01 -1.00000E+00  1.59395E-01
      21    -1     0     0   501   502  0.000000000E+00  0.000000000E+00  8.604877042E+00  8.604877042E+00  0.000000000E+00  0.00000E+00  9.000E+00
       2    -1     0     0   502     0  0.000000000E+00  0.000000000E+00 -1.638684458E+03  1.638684458E+03  0.000000000E+00  0.00000E+00  9.000E+00
      25     1     1     2     0     0 -8.479974852E+00 -2.153734718E+01 -5.132114421E+02  5.287223051E+02  1.250020974E+02  0.00000E+00  9.000E+00
       5     1     1     2   501     0 -7.663050215E+00 -7.041818207E+00 -9.273893816E+01  9.344186799E+01  4.750000000E+00  0.00000E+00  9.000E+00
      -5     1     1     2     0   503  1.191065494E+00  1.455321970E+01 -1.559879897E+02  1.567419225E+02  4.750000000E+00  0.00000E+00  9.000E+00
       2     1     1     2   503     0  1.495195957E+01  1.402594568E+01 -8.681412107E+02  8.683832391E+02  1.525878906E-05  0.00000E+00  9.000E+00
#rwgt            1           9  0.85855242094723072                4     2904142           0
</event>
<event>
      6   9999  3.45752E-01  6.53443E+01 -1.00000E+00  1.28849E-01
      21    -1     0     0   501   502  0.000000000E+00  0.000000000E+00  1.034843347E+02  1.034843347E+02  0.000000000E+00  0.00000E+00  9.000E+00
      21    -1     0     0   502   511  0.000000000E+00  0.000000000E+00 -2.398808090E+03  2.398808090E+03  0.000000000E+00  0.00000E+00  9.000E+00
      25     1     1     2     0     0  4.748306952E+01 -2.421992208E+01 -1.498346232E+03  1.504496558E+03  1.250088591E+02  0.00000E+00  9.000E+00
       5     1     1     2   501     0  6.017816337E+00 -1.967705468E+01  9.773470605E+01  9.999017882E+01  4.750000000E+00  0.00000E+00  9.000E+00
      -5     1     1     2     0   503 -4.362026256E+00  8.242909802E-01 -1.786138403E+02  1.787321268E+02  4.750000000E+00  0.00000E+00  9.000E+00
      21     1     1     2   503   511 -4.913885960E+01  4.307268578E+01 -7.160983893E+02  7.190735615E+02  7.629394531E-06  0.00000E+00  9.000E+00
#rwgt            1           9   6.3681622795413583E-004           4     2905462           0
</event>
<event>
      6   9999  3.45752E-01  1.35998E+01 -1.00000E+00  1.74144E-01
      21    -1     0     0   501   512  0.000000000E+00  0.000000000E+00  1.170664780E+01  1.170664780E+01  0.000000000E+00  0.00000E+00  9.000E+00
      21    -1     0     0   502   503  0.000000000E+00  0.000000000E+00 -9.804326397E+02  9.804326397E+02  0.000000000E+00  0.00000E+00  9.000E+00
      25     1     1     2     0     0 -1.463439079E+01 -3.515798875E+01 -7.397634501E+02  7.512162004E+02  1.250022719E+02  0.00000E+00  9.000E+00
       5     1     1     2   501     0 -2.603412530E+00  8.063388894E-01  2.028507928E+00  5.839972913E+00  4.750000000E+00  0.00000E+00  9.000E+00
      -5     1     1     2     0   503  4.889352537E+00  2.865328902E+01 -1.751982703E+02  1.776567285E+02  4.750000000E+00  0.00000E+00  9.000E+00
      21     1     1     2   502   512  1.234845079E+01  5.698360844E+00 -5.579277936E+01  5.742638576E+01  6.743495762E-07  0.00000E+00  9.000E+00
#rwgt            1           9   4.3314655672776328E-002           4     2906969           0
</event>
<event>
      6   9999 -3.45752E-01  2.23323E+01 -1.00000E+00  1.56638E-01
      21    -1     0     0   511   502  0.000000000E+00  0.000000000E+00  8.137543049E+01  8.137543049E+01  0.000000000E+00  0.00000E+00  9.000E+00
      21    -1     0     0   502   503  0.000000000E+00  0.000000000E+00 -7.868813018E+02  7.868813018E+02  0.000000000E+00  0.00000E+00  9.000E+00
      25     1     1     2     0     0 -2.073865367E+01  5.078359048E+00 -7.377345109E+02  7.485554871E+02  1.250089083E+02  0.00000E+00  9.000E+00
       5     1     1     2   501     0 -3.152054356E+00 -1.440870856E+01  2.424599956E+01  2.877459511E+01  4.750000000E+00  0.00000E+00  9.000E+00
      -5     1     1     2     0   503  2.024139009E+01 -1.270181287E+01 -3.490831612E+01  4.256997718E+01  4.750000000E+00  0.00000E+00  9.000E+00
      21     1     1     2   511   501  3.649317929E+00  2.203216238E+01  4.289095614E+01  4.835667295E+01  1.907348633E-06  0.00000E+00  9.000E+00
#rwgt            1           9  -4.7278124050858152E-003           4     2908964           0
</event>
<event>
      6   9999  3.45752E-01  7.02241E+00 -1.00000E+00  2.04962E-01
      21    -1     0     0   501   512  0.000000000E+00  0.000000000E+00  8.983319436E+01  8.983319436E+01  0.000000000E+00  0.00000E+00  9.000E+00
      21    -1     0     0   502   503  0.000000000E+00  0.000000000E+00 -9.920033213E+02  9.920033213E+02  0.000000000E+00  0.00000E+00  9.000E+00
      25     1     1     2     0     0 -6.364120061E+00 -8.351762577E+00 -9.207604701E+02  9.292659623E+02  1.250005258E+02  0.00000E+00  9.000E+00
       5     1     1     2   501     0 -2.091151511E+00 -8.162476055E-01  1.549661302E+01  1.636296703E+01  4.750000000E+00  0.00000E+00  9.000E+00
      -5     1     1     2     0   503  3.999831877E+00  3.739993541E+00 -6.618150739E+01  6.657732818E+01  4.750000000E+00  0.00000E+00  9.000E+00
      21     1     1     2   502   512  4.455439695E+00  5.428016641E+00  6.927523755E+01  6.963025812E+01  2.697398305E-06  0.00000E+00  9.000E+00
#rwgt            1           9   7.9645579836313471E-003           4     2910828           0
</event>
<event>
      6   9999  3.45752E-01  1.03217E+01 -1.00000E+00  1.85757E-01
      21    -1     0     0   501   502  0.000000000E+00  0.000000000E+00  1.114715517E+03  1.114715517E+03  0.000000000E+00  0.00000E+00  9.000E+00
      21    -1     0     0   511   503  0.000000000E+00  0.000000000E+00 -1.945631849E+01  1.945631849E+01  0.000000000E+00  0.00000E+00  9.000E+00
      25     1     1     2     0     0  4.301948726E+01 -2.786375893E+01  6.287883543E+02  6.431373259E+02  1.249950406E+02  0.00000E+00  9.000E+00
       5     1     1     2   501     0 -1.102605818E+00  5.952552748E-01  3.410449838E+02  3.410803623E+02  4.750000000E+00  0.00000E+00  9.000E+00
      -5     1     1     2     0   503 -5.107364118E+01  2.250493357E+01  1.276469320E+02  1.393961642E+02  4.750000000E+00  0.00000E+00  9.000E+00
      21     1     1     2   511   502  9.156759742E+00  4.763570092E+00 -2.221071480E+00  1.055798312E+01  5.997601687E-07  0.00000E+00  9.000E+00
#rwgt            1           9   9.5962638243590585E-004           4     2914469           0
</event>
<event>
      6   9999  3.45752E-01  7.57364E+00 -1.00000E+00  2.00874E-01
      21    -1     0     0   501   502  0.000000000E+00  0.000000000E+00  7.978712768E+00  7.978712768E+00  0.000000000E+00  0.00000E+00  9.000E+00
      21    -1     0     0   502   512  0.000000000E+00  0.000000000E+00 -7.504860428E+02  7.504860428E+02  0.000000000E+00  0.00000E+00  9.000E+00
      25     1     1     2     0     0 -1.540417456E+01 -2.395849318E+00 -6.052298104E+02  6.182005149E+02  1.250028980E+02  0.00000E+00  9.000E+00
       5     1     1     2   501     0  6.506425246E+00  6.959242690E+00 -3.514486055E+01  3.672176945E+01  4.750000000E+00  0.00000E+00  9.000E+00
      -5     1     1     2     0   503  3.249858727E+00  4.825297202E-01 -1.487733089E+01  1.595906924E+01  4.750000000E+00  0.00000E+00  9.000E+00
      21     1     1     2   503   512  5.647890588E+00 -5.045923092E+00 -8.725532819E+01  8.758340199E+01  1.907348633E-06  0.00000E+00  9.000E+00
#rwgt            1           9   7.3702828029596906E-003           4     2917404           0
</event>
<event>
      6   9999  3.45752E-01  1.35840E+01 -1.00000E+00  1.74190E-01
      21    -1     0     0   501   502  0.000000000E+00  0.000000000E+00  1.812023136E+01  1.812023136E+01  0.000000000E+00  0.00000E+00  9.000E+00
      21    -1     0     0   502   511  0.000000000E+00  0.000000000E+00 -1.068420905E+03  1.068420905E+03  0.000000000E+00  0.00000E+00  9.000E+00
      25     1     1     2     0     0 -1.469392124E+01  2.167881844E+01 -8.930133505E+02  9.020995218E+02  1.249992827E+02  0.00000E+00  9.000E+00
       5     1     1     2   501     0 -5.216065999E+00 -1.133605397E+00  1.092428552E+01  1.305354051E+01  4.750000000E+00  0.00000E+00  9.000E+00
      -5     1     1     2     0   503  1.156531959E+01 -9.826493887E+00 -5.178322939E+01  5.416993581E+01  4.750000000E+00  0.00000E+00  9.000E+00
      21     1     1     2   503   511  8.344667647E+00 -1.071871915E+01 -1.164283790E+02  1.172181379E+02  1.348699152E-06  0.00000E+00  9.000E+00
#rwgt            1           9   1.0167292563813476E-004           4     2920008           0
</event>
<event>
      6   9999  3.45752E-01  1.09681E+01 -1.00000E+00  1.83063E-01
      21    -1     0     0   501   502  0.000000000E+00  0.000000000E+00  8.925635081E+02  8.925635081E+02  0.000000000E+00  0.00000E+00  9.000E+00
      21    -1     0     0   502   512  0.000000000E+00  0.000000000E+00 -6.591803477E+01  6.591803477E+01  0.000000000E+00  0.00000E+00  9.000E+00
      25     1     1     2     0     0 -3.436747765E+00  7.307991475E+01  1.312210997E+02  1.954411259E+02  1.250030860E+02  0.00000E+00  9.000E+00
       5     1     1     2   501     0 -4.722289027E+00  1.305750366E+00  6.846739270E+02  6.847079333E+02  4.750000000E+00  0.00000E+00  9.000E+00
      -5     1     1     2     0   503  1.285564721E+01 -6.447396231E+01  5.418041366E+00  6.613680634E+01  4.750000000E+00  0.00000E+00  9.000E+00
      21     1     1     2   503   512 -4.696610414E+00 -9.911702806E+00  5.332405312E+00  1.219567744E+01  2.528810911E-07  0.00000E+00  9.000E+00
#rwgt            1           9   4.8030055678580296E-003           4     2922545           0
</event>
<event>
      6   9999 -3.45752E-01  7.36954E+00 -1.00000E+00  2.02332E-01
      21    -1     0     0   501   511  0.000000000E+00  0.000000000E+00  1.724055456E+01  1.724055456E+01  0.000000000E+00  0.00000E+00  9.000E+00
      21    -1     0     0   502   503  0.000000000E+00  0.000000000E+00 -9.593898300E+02  9.593898300E+02  0.000000000E+00  0.00000E+00  9.000E+00
      25     1     1     2     0     0  5.887247014E+01  1.923418954E+01 -6.708073830E+02  6.851596254E+02  1.250009820E+02  0.00000E+00  9.000E+00
       5     1     1     2   501     0  1.866334050E-01 -1.499042614E+00  3.419533898E+00  6.044640011E+00  4.750000000E+00  0.00000E+00  9.000E+00
      -5     1     1     2     0   503 -6.392026967E+01 -2.327403175E+01 -2.616028196E+02  2.703443714E+02  4.750000000E+00  0.00000E+00  9.000E+00
      21     1     1     2   502   511  4.861166132E+00  5.538884824E+00 -1.315860674E+01  1.508174766E+01  1.685873940E-07  0.00000E+00  9.000E+00
#rwgt            1           9  -4.0076526395415950E-004           4     2925972           0
</event>
<event>
      6   9999  3.45752E-01  7.88350E+00 -1.00000E+00  1.98773E-01
      21    -1     0     0   501   502  0.000000000E+00  0.000000000E+00  7.775769709E+01  7.775769709E+01  0.000000000E+00  0.00000E+00  9.000E+00
      21    -1     0     0   502   512  0.000000000E+00  0.000000000E+00 -1.522088366E+02  1.522088366E+02  0.000000000E+00  0.00000E+00  9.000E+00
      25     1     1     2     0     0  4.198021688E+00  1.075637231E+01 -9.063688511E+01  1.548327358E+02  1.249992328E+02  0.00000E+00  9.000E+00
       5     1     1     2   501     0 -1.243113211E+00  8.872904154E-01  4.072625028E+01  4.103075160E+01  4.750000000E+00  0.00000E+00  9.000E+00
      -5     1     1     2     0   503 -3.016279727E+00 -3.760403787E+00  1.468825711E+00  6.925209672E+00  4.750000000E+00  0.00000E+00  9.000E+00
      21     1     1     2   503   512  6.137124961E-02 -7.883258934E+00 -2.600933040E+01  2.717783666E+01  0.000000000E+00  0.00000E+00  9.000E+00
#rwgt            1           9   1.6596770798999173E-002           4     2929365           0
</event>
<event>
      6   9999  3.45752E-01  7.69120E+00 -1.00000E+00  2.00061E-01
      21    -1     0     0   501   511  0.000000000E+00  0.000000000E+00  1.453746937E+01  1.453746937E+01  0.000000000E+00  0.00000E+00  9.000E+00
      21    -1     0     0   502   503  0.000000000E+00  0.000000000E+00 -8.623077927E+02  8.623077927E+02  0.000000000E+00  0.00000E+00  9.000E+00
      25     1     1     2     0     0 -1.082525685E+01 -4.153367236E+01 -6.693589017E+02  6.822815642E+02  1.249982460E+02  0.00000E+00  9.000E+00
       5     1     1     2   501     0 -1.841039565E+00  4.521199022E-01  1.757617438E+00  5.407916248E+00  4.750000000E+00  0.00000E+00  9.000E+00
      -5     1     1     2     0   503  7.074501080E+00  3.580079670E+01 -1.770863512E+02  1.808697981E+02  4.750000000E+00  0.00000E+00  9.000E+00
      21     1     1     2   502   511  5.591795335E+00  5.280755760E+00 -3.082687872E+00  8.285983404E+00  1.032382731E-07  0.00000E+00  9.000E+00
#rwgt            1           9   3.3276293927745068E-003           4     2932501           0
</event>
<event>
      6   9999  3.45752E-01  2.43991E+01 -1.00000E+00  1.53888E-01
      21    -1     0     0   501   512  0.000000000E+00  0.000000000E+00  1.048991197E+02  1.048991197E+02  0.000000000E+00  0.00000E+00  9.000E+00
      21    -1     0     0   502   503  0.000000000E+00  0.000000000E+00 -1.039610775E+03  1.039610775E+03  0.000000000E+00  0.00000E+00  9.000E+00
      25     1     1     2     0     0 -5.848318482E+01 -5.044040188E+01 -9.304370796E+02  9.419676463E+02  1.250014819E+02  0.00000E+00  9.000E+00
       5     1     1     2   501     0 -4.917719549E-01 -2.133635678E+00  6.964440685E+00  8.709774677E+00  4.750000000E+00  0.00000E+00  9.000E+00
      -5     1     1     2     0   503  6.418226627E+01  2.873708915E+01 -8.831176315E+01  1.129898828E+02  4.750000000E+00  0.00000E+00  9.000E+00
      21     1     1     2   502   512 -5.207309494E+00  2.383694841E+01  7.707274691E+01  8.084259086E+01  2.132480600E-06  0.00000E+00  9.000E+00
#rwgt            1           9   1.2198436616817616E-004           4     2936090           0
</event>
<event>
      6   9999  3.45752E-01  5.84327E+00 -1.00000E+00  2.15672E-01
      21    -1     0     0   501   502  0.000000000E+00  0.000000000E+00  4.245188309E+01  4.245188309E+01  0.000000000E+00  0.00000E+00  9.000E+00
      21    -1     0     0   502   511  0.000000000E+00  0.000000000E+00 -1.030031933E+03  1.030031933E+03  0.000000000E+00  0.00000E+00  9.000E+00
      25     1     1     2     0     0 -3.584186653E+01 -6.540138311E+01 -7.605219866E+02  7.743262120E+02  1.250016411E+02  0.00000E+00  9.000E+00
       5     1     1     2   501     0  6.559442497E+00 -3.136937985E+00  2.954196780E+01  3.079215854E+01  4.750000000E+00  0.00000E+00  9.000E+00
      -5     1     1     2     0   503  2.678006404E+01  6.325797655E+01 -2.278298230E+02  2.380078448E+02  4.750000000E+00  0.00000E+00  9.000E+00
      21     1     1     2   503   511  2.502359992E+00  5.280344546E+00 -2.877020771E+01  2.935760031E+01  0.000000000E+00  0.00000E+00  9.000E+00
#rwgt            1           9   7.6013489122727318E-006           4     2937597           0
</event>
<event>
      6   9999  3.45752E-01  1.16257E+01 -1.00000E+00  1.80556E-01
      21    -1     0     0   512   502  0.000000000E+00  0.000000000E+00  2.183766487E+02  2.183766487E+02  0.000000000E+00  0.00000E+00  9.000E+00
      21    -1     0     0   502   503  0.000000000E+00  0.000000000E+00 -6.298374161E+01  6.298374161E+01  0.000000000E+00  0.00000E+00  9.000E+00
      25     1     1     2     0     0  7.200047026E-01 -1.231976289E+00  7.874041419E+00  1.252585484E+02  1.250026690E+02  0.00000E+00  9.000E+00
       5     1     1     2   501     0  6.216752304E-01  1.665260741E+00  1.137690554E+02  1.138820444E+02  4.750000000E+00  0.00000E+00  9.000E+00
      -5     1     1     2     0   503  1.028147221E+01 -1.880545146E-01  7.708843676E+00  1.370156218E+01  4.750000000E+00  0.00000E+00  9.000E+00
      21     1     1     2   512   501 -1.162315214E+01 -2.452299374E-01  2.604096660E+01  2.851823530E+01  0.000000000E+00  0.00000E+00  9.000E+00
#rwgt            1           9   17.024214145089395                4     2942477           0
</event>
<event>
      6   9999  3.45752E-01  5.07848E+00 -1.00000E+00  2.24669E-01
      21    -1     0     0   501   502  0.000000000E+00  0.000000000E+00  6.326733321E+01  6.326733321E+01  0.000000000E+00  0.00000E+00  9.000E+00
      21    -1     0     0   502   511  0.000000000E+00  0.000000000E+00 -1.461161952E+02  1.461161952E+02  0.000000000E+00  0.00000E+00  9.000E+00
      25     1     1     2     0     0 -5.740663233E+00 -1.130970198E+00 -9.393369204E+01  1.564713577E+02  1.250020518E+02  0.00000E+00  9.000E+00
       5     1     1     2   501     0 -6.279093974E-01  2.870646912E-01  2.940280574E+01  2.979201507E+01  4.750000000E+00  0.00000E+00  9.000E+00
      -5     1     1     2     0   503  1.299385826E+00  1.151066947E+00 -1.108936324E+00  5.177412328E+00  4.750000000E+00  0.00000E+00  9.000E+00
      21     1     1     2   503   511  5.069186804E+00 -3.071614400E-01 -1.720903935E+01  1.794274334E+01  2.384185791E-07  0.00000E+00  9.000E+00
#rwgt            1           9   5.8038792183728030E-003           4     2945072           0
</event>
<event>
      6   9999  3.45752E-01  1.58007E+01 -1.00000E+00  1.68437E-01
      21    -1     0     0   501   502  0.000000000E+00  0.000000000E+00  1.597955765E+01  1.597955765E+01  0.000000000E+00  0.00000E+00  9.000E+00
      21    -1     0     0   502   512  0.000000000E+00  0.000000000E+00 -1.050938746E+03  1.050938746E+03  0.000000000E+00  0.00000E+00  9.000E+00
      25     1     1     2     0     0 -1.512130817E+01 -3.985990194E+01 -6.837182856E+02  6.963601827E+02  1.250173759E+02  0.00000E+00  9.000E+00
       5     1     1     2   501     0  3.373114751E+00 -4.622819909E+00  6.381002363E+00  9.799390705E+00  4.750000000E+00  0.00000E+00  9.000E+00
      -5     1     1     2     0   503  1.249012030E+01  2.869949469E+01 -2.347472341E+02  2.368723085E+02  4.750000000E+00  0.00000E+00  9.000E+00
      21     1     1     2   503   512 -7.419268827E-01  1.578322716E+01 -1.228746706E+02  1.238864214E+02  1.348699152E-06  0.00000E+00  9.000E+00
#rwgt            1           9   4.7093397212060842E-005           4     2949249           0
</event>
<event>
      6   9999  3.45752E-01  1.91623E+01 -1.00000E+00  1.61642E-01
      21    -1     0     0   501   502  0.000000000E+00  0.000000000E+00  1.163315223E+02  1.163315223E+02  0.000000000E+00  0.00000E+00  9.000E+00
      21    -1     0     0   511   503  0.000000000E+00  0.000000000E+00 -3.864282124E+02  3.864282124E+02  0.000000000E+00  0.00000E+00  9.000E+00
      25     1     1     2     0     0  9.480890829E+01 -6.654416499E+01 -1.581653004E+01  1.711485969E+02  1.249992984E+02  0.00000E+00  9.000E+00
       5     1     1     2   501     0  2.231559092E+00  1.692928496E+00  1.939610489E+01  2.016475261E+01  4.750000000E+00  0.00000E+00  9.000E+00
      -5     1     1     2     0   503 -7.837022206E+01  6.916597063E+01 -1.318118330E+02  1.682936273E+02  4.750000000E+00  0.00000E+00  9.000E+00
      21     1     1     2   511   502 -1.867024533E+01 -4.314734136E+00 -1.418644320E+02  1.431527578E+02  1.907348633E-06  0.00000E+00  9.000E+00
#rwgt            1           9   1.9064569521224831E-002           4     2951087           0
</event>
<event>
      6   9999  3.45752E-01  2.17635E+01 -1.00000E+00  1.57459E-01
      21    -1     0     0   501   502  0.000000000E+00  0.000000000E+00  1.008404354E+02  1.008404354E+02  0.000000000E+00  0.00000E+00  9.000E+00
      21    -1     0     0   512   503  0.000000000E+00  0.000000000E+00 -2.288158988E+02  2.288158988E+02  0.000000000E+00  0.00000E+00  9.000E+00
      25     1     1     2     0     0  3.521867341E+01 -4.813045899E+01 -3.035850803E+01  1.417848858E+02  1.249976751E+02  0.00000E+00  9.000E+00
       5     1     1     2   501     0 -2.072720719E+00 -4.148342167E+00  3.717040015E+01  3.775852303E+01  4.750000000E+00  0.00000E+00  9.000E+00
      -5     1     1     2     0   503 -3.065892243E+01  3.065784312E+01 -7.918440142E+01  9.040246013E+01  4.750000000E+00  0.00000E+00  9.000E+00
      21     1     1     2   512   502 -2.487030257E+00  2.162095803E+01 -5.560295418E+01  5.971046524E+01  0.000000000E+00  0.00000E+00  9.000E+00
#rwgt            1           9  0.44802547092476219                4     2953214           0
</event>
<event>
      6   9999 -3.45752E-01  1.42722E+02 -1.00000E+00  1.14216E-01
       2    -1     0     0   501     0  0.000000000E+00  0.000000000E+00  9.706991227E+01  9.706991227E+01  0.000000000E+00  0.00000E+00  9.000E+00
      21    -1     0     0   502   503  0.000000000E+00  0.000000000E+00 -1.804722509E+03  1.804722509E+03  0.000000000E+00  0.00000E+00  9.000E+00
      25     1     1     2     0     0 -1.463313022E+02  1.069102969E+02 -3.188927435E+02  3.875063204E+02  1.250036195E+02  0.00000E+00  9.000E+00
       5     1     1     2   501     0  9.376541839E+01 -1.894750349E+02 -6.102636122E+02  6.458614258E+02  4.750000000E+00  0.00000E+00  9.000E+00
      -5     1     1     2     0   503  1.630952871E+02  1.728576214E+02 -5.478012174E+02  5.971503715E+02  4.750000000E+00  0.00000E+00  9.000E+00
       2     1     1     2   502     0 -1.105294032E+02 -9.029288339E+01 -2.306950232E+02  2.712743030E+02  5.394796609E-06  0.00000E+00  9.000E+00
#rwgt            1           9  -2.4687830066690990E-004           4     2954863           0
</event>
<event>
      6   9999  3.45752E-01  1.90789E+01 -1.00000E+00  1.61789E-01
      21    -1     0     0   501   502  0.000000000E+00  0.000000000E+00  3.778888433E+01  3.778888433E+01  0.000000000E+00  0.00000E+00  9.000E+00
       2    -1     0     0   502     0  0.000000000E+00  0.000000000E+00 -2.011391663E+03  2.011391663E+03  0.000000000E+00  0.00000E+00  9.000E+00
      25     1     1     2     0     0 -3.014424399E+01  5.721642427E+01 -8.944421221E+02  9.054467676E+02  1.249989784E+02  0.00000E+00  9.000E+00
       5     1     1     2   501     0  1.018189100E+01 -7.536131260E+00  2.748369167E+01  3.063298853E+01  4.750000000E+00  0.00000E+00  9.000E+00
      -5     1     1     2     0   503  3.901296541E+01 -4.864223224E+01 -3.108540873E+02  3.170818574E+02  4.750000000E+00  0.00000E+00  9.000E+00
       2     1     1     2   503     0 -1.905061241E+01 -1.038060769E+00 -7.957902612E+02  7.960189339E+02  0.000000000E+00  0.00000E+00  9.000E+00
#rwgt            1           9   1.7617647998950300E-006           4     2956671           0
</event>
<event>
      6   9999  3.45752E-01  1.37452E+00 -1.00000E+00  4.24478E-01
      21    -1     0     0   511   502  0.000000000E+00  0.000000000E+00  2.094092829E+02  2.094092829E+02  0.000000000E+00  0.00000E+00  9.000E+00
      21    -1     0     0   502   503  0.000000000E+00  0.000000000E+00 -7.316039288E+02  7.316039288E+02  0.000000000E+00  0.00000E+00  9.000E+00
      25     1     1     2     0     0 -5.475722851E+00  9.796581340E+00 -6.925260832E+02  7.038066586E+02  1.250019212E+02  0.00000E+00  9.000E+00
       5     1     1     2   501     0 -2.909588944E-01 -2.850725435E+00 -8.024191048E+00  9.755072248E+00  4.750000000E+00  0.00000E+00  9.000E+00
      -5     1     1     2     0   503  7.116268960E+00 -6.685217559E+00 -2.334479911E+01  2.574636990E+01  4.750000000E+00  0.00000E+00  9.000E+00
      21     1     1     2   511   501 -1.349587214E+00 -2.606383461E-01  2.017004275E+02  2.017051109E+02  6.607249480E-06  0.00000E+00  9.000E+00
#rwgt            1           9   5.6059426358437002E-004           4     2958883           0
</event>
<event>
      6   9999  3.45752E-01  1.01405E+01 -1.00000E+00  1.86557E-01
      21    -1     0     0   502   512  0.000000000E+00  0.000000000E+00  1.600845695E+01  1.600845695E+01  0.000000000E+00  0.00000E+00  9.000E+00
      21    -1     0     0   501   502  0.000000000E+00  0.000000000E+00 -7.208374156E+02  7.208374156E+02  0.000000000E+00  0.00000E+00  9.000E+00
      25     1     1     2     0     0  1.243378271E+01  3.605455629E+00 -6.060542867E+02  6.189473806E+02  1.250058526E+02  0.00000E+00  9.000E+00
       5     1     1     2   501     0 -3.861839578E+00  2.560948012E+00 -9.564354117E+01  9.587346728E+01  4.750000000E+00  0.00000E+00  9.000E+00
      -5     1     1     2     0   503 -1.172697516E+00  7.676930025E-01 -9.026108950E+00  1.029551916E+01  4.750000000E+00  0.00000E+00  9.000E+00
      21     1     1     2   503   512 -7.399245621E+00 -6.934096644E+00  5.894978210E+00  1.172950554E+01  1.460009660E-07  0.00000E+00  9.000E+00
#rwgt            1           9   236.32603261273889                4     2969475           0
</event>
<event>
      6   9999  3.45752E-01  5.58704E+01 -1.00000E+00  1.32258E-01
      21    -1     0     0   511   502  0.000000000E+00  0.000000000E+00  3.129729264E+01  3.129729264E+01  0.000000000E+00  0.00000E+00  9.000E+00
      21    -1     0     0   502   503  0.000000000E+00  0.000000000E+00 -1.275996767E+03  1.275996767E+03  0.000000000E+00  0.00000E+00  9.000E+00
      25     1     1     2     0     0 -8.950038542E+01 -2.182412534E+01 -3.142958766E+02  3.505611525E+02  1.249984488E+02  0.00000E+00  9.000E+00
       5     1     1     2   501     0  2.137929302E+00 -7.975171291E+00 -1.313236527E+02  1.316686689E+02  4.750000000E+00  0.00000E+00  9.000E+00
      -5     1     1     2     0   503  1.289189865E+02  6.714299312E+01 -6.442824935E+02  6.604928316E+02  4.750000000E+00  0.00000E+00  9.000E+00
      21     1     1     2   511   501 -4.155653040E+01 -3.734369649E+01 -1.547974518E+02  1.645714069E+02  2.697398305E-06  0.00000E+00  9.000E+00
#rwgt            1           9  0.10121589969168490                4     2971578           0
</event>
</LesHouchesEvents>
 #Random number generator exit values:            4       2972347             0
