<LesHouchesEvents version="3.0">
<!--
file generated with POWHEG-BOX-V2
Input file powheg.input contained:
numevts 1000    ! number of events to be generated

! Production parameters for ttH production
hmass 125.d0      ! mass of the HIggs boson [GeV]
hwidth 0.00498d0  ! width of the Higgs boson [GeV]

hdecaymode -1    ! -1 no decay
                ! 0 all decay channels open
                ! 1-6 d dbar, u ubar,..., t tbar
                ! 7-9 e+ e-, mu+ mu-, tau+ tau-
                ! 10  W+W-
                ! 11  ZZ
                ! 12  gamma gamma

#pythiatune 320	! PYTHIA tune


ih1   1           ! hadron 1 (1 for protons, -1 for antiprotons)
ih2   1           ! hadron 2 (1 for protons, -1 for antiprotons)
ebeam1 6500d0     ! energy of beam 1
ebeam2 6500d0     ! energy of beam 2

! To be set only if using 'native' pdfs
!ndns1 131         ! pdf set for hadron 1 (mlm numbering)
!ndns2 131         ! pdf set for hadron 2 (mlm numbering)
! To be set only if using LHA pdfs
! 10050 cteq6m
! 10042 cteq6l with LO alphas (corr. to vbfnlo LO set)
! 10041 cteq6l with NLO alphas
! 21000 MSTW2008 LO
! 21100 MSTW2008 NLO
! 23300 MSTW2008 NLO, NF=4
! 11082 CT10 Nf4

lhans1  23300      ! pdf set for hadron 1 (LHA numbering)
lhans2  23300      ! pdf set for hadron 2 (LHA numbering)

#bornktmin 1d0    ! Generation cut; minimum kt in underlying born
#bornsuppfact 1d0 ! (default 0d0) switch for Born suppression factor. If < 0 suppfact = 1
delta_mbbmin 0d0 ! generation cut on mbb (no gencut used, if set to 0)

use-old-grid    1 ! if 1 use old grid if file pwggrids.dat is present (<> 1 regenerate)
use-old-ubound  1 ! if 1 use norm of upper bounding function stored in pwgubound.dat, if present; <>

ncall1  500000  ! number of calls for initializing the integration grid
itmx1    2     ! number of iterations for initializing the integration grid
ncall2  50000  ! number of calls for computing the integral and finding upper bound
itmx2     1     ! number of iterations for computing the integral and finding upper bound
foldcsi   1    ! number of folds on csi integration
foldy     1    ! number of folds on  y  integration
foldphi   1    ! number of folds on phi integration
nubound 10000  ! number of bbarra calls to setup norm of upper bounding function
icsimax  1     ! <= 100, number of csi subdivision when computing the upper bounds
iymax    1     ! <= 100, number of y subdivision when computing the upper bounds
xupbound 2d0   ! increase upper bound for radiation generation

#runningscales 2	   ! default 0 (no running scales); 1,2: use running scales
renscfact 1d0   ! (default 1d0) ren scale factor: muren  = muref * renscfact
facscfact 1d0   ! (default 1d0) fac scale factor: mufact = muref * facscfact
testplots  1       ! (default 0, do not) do NLO and PWHG distributions

#bornonly   1      ! (default 0) if 1 do Born only
#fakevirt   1      ! (default 0) if 1 use Born for virtuals

iseed    2

manyseeds  1       ! Used to perform multiple runs with different random
                   ! seeds in the same directory.
                   ! If set to 1, the program asks for an integer j;
                   ! The file pwgseeds.dat at line j is read, and the
                   ! integer at line j is used to initialize the random
                   ! sequence for the generation of the event.
                   ! The event file is called pwgevents-'j'.lhe

#storeinfo_rwgt 1   ! store info for reweighting events
#compute_rwgt 1   ! store info for reweighting events
#xgriditeration 1   ! identifier for grid generation
#parallelstage  4   ! identifier for parallel running stages


toploop 1	! 1 include top loop effects; 0 disregard top loop effects
msbar  1	! 1 MSbar renormalization; 0 On-Shell renormalization
parallelstage 4
End of powheg.input content
PDF package: lha
 Random number generator initialized with:            3             0             0
-->
<init>
     2212     2212  6.50000E+03  6.50000E+03     -1     -1     -1     -1     -4      1
  3.37328E-01  1.60874E-01  1.00000E+00   9999
</init>
<event>
      6   9999  3.45752E-01  6.41586E+00 -1.00000E+00  2.10083E-01
       1    -1     0     0   502     0  0.000000000E+00  0.000000000E+00  3.903364339E+02  3.903364339E+02  0.000000000E+00  0.00000E+00  9.000E+00
      21    -1     0     0   501   502  0.000000000E+00  0.000000000E+00 -1.881709576E+02  1.881709576E+02  0.000000000E+00  0.00000E+00  9.000E+00
      25     1     1     2     0     0 -1.819434169E+01 -1.858889060E+01 -1.229374933E+02  1.772551929E+02  1.250167797E+02  0.00000E+00  9.000E+00
       5     1     1     2   501     0  1.925795070E+00 -3.227743948E+00 -1.163685267E+01  1.311891221E+01  4.750000000E+00  0.00000E+00  9.000E+00
      -5     1     1     2     0   503  9.923546783E+00  2.276757048E+01 -1.944019025E+01  3.189549409E+01  4.750000000E+00  0.00000E+00  9.000E+00
       1     1     1     2   503     0  6.344999840E+00 -9.509359389E-01  3.561800126E+02  3.562377923E+02  5.394796609E-06  0.00000E+00  9.000E+00
#rwgt            1           9  0.87692837537716972                3         421           0
</event>
<event>
      6   9999  3.45752E-01  1.35340E+01 -1.00000E+00  1.74335E-01
      21    -1     0     0   511   502  0.000000000E+00  0.000000000E+00  1.496586123E+02  1.496586123E+02  0.000000000E+00  0.00000E+00  9.000E+00
      21    -1     0     0   502   503  0.000000000E+00  0.000000000E+00 -5.523880234E+02  5.523880234E+02  0.000000000E+00  0.00000E+00  9.000E+00
      25     1     1     2     0     0  1.072199702E+01  1.876375111E+01 -4.286892877E+02  4.470649502E+02  1.250020987E+02  0.00000E+00  9.000E+00
       5     1     1     2   501     0 -9.282883631E-01  3.049311246E+00  3.938138977E+00  6.944887110E+00  4.750000000E+00  0.00000E+00  9.000E+00
      -5     1     1     2     0   503 -6.314017041E+00 -8.734042024E+00 -1.123598351E+02  1.129754193E+02  4.750000000E+00  0.00000E+00  9.000E+00
      21     1     1     2   511   501 -3.479691616E+00 -1.307902033E+01  1.343815728E+02  1.350613792E+02  3.303624740E-06  0.00000E+00  9.000E+00
#rwgt            1           9   4.7287763288213989E-004           3        4000           0
</event>
<event>
      6   9999  3.45752E-01  3.75325E+00 -1.00000E+00  2.53716E-01
      21    -1     0     0   512   502  0.000000000E+00  0.000000000E+00  1.446829305E+01  1.446829305E+01  0.000000000E+00  0.00000E+00  9.000E+00
      21    -1     0     0   502   503  0.000000000E+00  0.000000000E+00 -6.889127273E+02  6.889127273E+02  0.000000000E+00  0.00000E+00  9.000E+00
      25     1     1     2     0     0 -7.529508341E+00  6.567563906E+00 -6.167618225E+02  6.293812507E+02  1.250031464E+02  0.00000E+00  9.000E+00
       5     1     1     2   501     0  1.028890594E+00  1.035807763E-02 -1.101729984E+00  4.983475906E+00  4.750000000E+00  0.00000E+00  9.000E+00
      -5     1     1     2     0   503  8.182061473E+00 -3.222383298E+00 -6.179154032E+01  6.259462308E+01  4.750000000E+00  0.00000E+00  9.000E+00
      21     1     1     2   512   501 -1.681443727E+00 -3.355538686E+00  5.210658505E+00  6.421670727E+00  2.308477966E-07  0.00000E+00  9.000E+00
#rwgt            1           9  0.13278261656069132                3        6815           0
</event>
<event>
      6   9999  3.45752E-01  8.35849E+00 -1.00000E+00  1.95788E-01
      21    -1     0     0   501   502  0.000000000E+00  0.000000000E+00  7.329717401E+00  7.329717401E+00  0.000000000E+00  0.00000E+00  9.000E+00
      21    -1     0     0   511   503  0.000000000E+00  0.000000000E+00 -1.208349025E+03  1.208349025E+03  0.000000000E+00  0.00000E+00  9.000E+00
      25     1     1     2     0     0 -2.712852277E+01  9.306367318E+00 -1.046636254E+03  1.054465127E+03  1.250067659E+02  0.00000E+00  9.000E+00
       5     1     1     2   501     0 -3.410383948E-01  1.867677596E-01 -2.936098904E+00  5.597710796E+00  4.750000000E+00  0.00000E+00  9.000E+00
      -5     1     1     2     0   503  2.320645005E+01 -2.303538008E+00 -7.432643653E+01  7.804375233E+01  4.750000000E+00  0.00000E+00  9.000E+00
      21     1     1     2   511   502  4.263111116E+00 -7.189597070E+00 -7.712051803E+01  7.757215172E+01  1.651812370E-06  0.00000E+00  9.000E+00
#rwgt            1           9   1.4179192111461812E-004           3       11047           0
</event>
<event>
      6   9999  3.45752E-01  1.28909E+01 -1.00000E+00  1.76279E-01
      21    -1     0     0   501   502  0.000000000E+00  0.000000000E+00  6.262193827E+01  6.262193827E+01  0.000000000E+00  0.00000E+00  9.000E+00
      21    -1     0     0   502   512  0.000000000E+00  0.000000000E+00 -1.416954606E+03  1.416954606E+03  0.000000000E+00  0.00000E+00  9.000E+00
      25     1     1     2     0     0  1.315914377E+01 -4.491893365E+00 -1.179749624E+03  1.186432551E+03  1.249787290E+02  0.00000E+00  9.000E+00
       5     1     1     2   501     0 -3.198349523E+00 -3.197419433E+00  5.836981156E+01  5.873712907E+01  4.750000000E+00  0.00000E+00  9.000E+00
      -5     1     1     2     0   503 -6.967567499E-01 -1.274720757E+00 -1.735637922E+02  1.736348549E+02  4.750000000E+00  0.00000E+00  9.000E+00
      21     1     1     2   503   512 -9.264037493E+00  8.964033556E+00 -5.938906286E+01  6.077200898E+01  6.743495762E-07  0.00000E+00  9.000E+00
#rwgt            1           9   2.7692492863452927                3       13642           0
</event>
<event>
      6   9999  3.45752E-01  1.73235E+01 -1.00000E+00  1.65124E-01
      21    -1     0     0   501   502  0.000000000E+00  0.000000000E+00  2.006848531E+01  2.006848531E+01  0.000000000E+00  0.00000E+00  9.000E+00
      21    -1     0     0   502   511  0.000000000E+00  0.000000000E+00 -1.069572688E+03  1.069572688E+03  0.000000000E+00  0.00000E+00  9.000E+00
      25     1     1     2     0     0 -5.486927811E+01 -5.510844369E+00 -5.804244641E+02  5.962827306E+02  1.249781152E+02  0.00000E+00  9.000E+00
       5     1     1     2   501     0 -9.406196248E-01 -9.050802286E-01  9.747660024E+00  1.092168995E+01  4.750000000E+00  0.00000E+00  9.000E+00
      -5     1     1     2     0   503  3.849632859E+01  5.830069500E+00 -3.875594521E+02  3.895392772E+02  4.750000000E+00  0.00000E+00  9.000E+00
      21     1     1     2   503   511  1.731356915E+01  5.858550981E-01 -9.126794634E+01  9.289747538E+01  0.000000000E+00  0.00000E+00  9.000E+00
#rwgt            1           9   5.8428285406945670E-006           3       17575           0
</event>
<event>
      6   9999 -3.45752E-01  5.73109E+00 -1.00000E+00  2.16870E-01
      21    -1     0     0   512   502  0.000000000E+00  0.000000000E+00  7.378537345E+01  7.378537345E+01  0.000000000E+00  0.00000E+00  9.000E+00
      21    -1     0     0   502   503  0.000000000E+00  0.000000000E+00 -8.699309652E+02  8.699309652E+02  0.000000000E+00  0.00000E+00  9.000E+00
      25     1     1     2     0     0  2.513376466E+01  4.365380105E+00 -8.259684564E+02  8.357627940E+02  1.249991766E+02  0.00000E+00  9.000E+00
       5     1     1     2   501     0  1.524829151E+00 -3.876469657E-01  6.556749360E-01  5.046561575E+00  4.750000000E+00  0.00000E+00  9.000E+00
      -5     1     1     2     0   503 -2.227499818E+01 -2.859157402E-01 -3.320804050E+01  4.026901719E+01  4.750000000E+00  0.00000E+00  9.000E+00
      21     1     1     2   512   501 -4.383595628E+00 -3.691817399E+00  6.237523023E+01  6.263796590E+01  1.507891493E-06  0.00000E+00  9.000E+00
#rwgt            1           9  -6.0559310034805178E-004           3       20040           0
</event>
<event>
      6   9999  3.45752E-01  6.83396E+00 -1.00000E+00  2.06476E-01
      21    -1     0     0   511   502  0.000000000E+00  0.000000000E+00  1.039241330E+01  1.039241330E+01  0.000000000E+00  0.00000E+00  9.000E+00
      21    -1     0     0   502   503  0.000000000E+00  0.000000000E+00 -7.249454946E+02  7.249454946E+02  0.000000000E+00  0.00000E+00  9.000E+00
      25     1     1     2     0     0  1.034699093E+00  1.571115683E+01 -4.413607208E+02  4.589833145E+02  1.249739417E+02  0.00000E+00  9.000E+00
       5     1     1     2   501     0 -5.538944537E-01  2.276475654E-01 -5.886446192E+00  7.587580066E+00  4.750000000E+00  0.00000E+00  9.000E+00
      -5     1     1     2     0   503 -5.054186427E+00 -1.086069049E+01 -2.471177418E+02  2.474535112E+02  4.750000000E+00  0.00000E+00  9.000E+00
      21     1     1     2   511   501  4.573381788E+00 -5.078113909E+00 -2.018817252E+01  2.131350210E+01  3.371747881E-07  0.00000E+00  9.000E+00
#rwgt            1           9   5.2702900830454947E-004           3       23704           0
</event>
<event>
      6   9999  3.45752E-01  2.01587E+01 -1.00000E+00  1.59949E-01
      21    -1     0     0   512   502  0.000000000E+00  0.000000000E+00  1.352218694E+01  1.352218694E+01  0.000000000E+00  0.00000E+00  9.000E+00
      21    -1     0     0   502   503  0.000000000E+00  0.000000000E+00 -8.871652770E+02  8.871652770E+02  0.000000000E+00  0.00000E+00  9.000E+00
      25     1     1     2     0     0  5.949759933E+00 -8.719368930E+00 -7.219119570E+02  7.327296892E+02  1.249979869E+02  0.00000E+00  9.000E+00
       5     1     1     2   501     0  3.572584474E+00  4.330686617E+00  3.154522673E+00  8.001982235E+00  4.750000000E+00  0.00000E+00  9.000E+00
      -5     1     1     2     0   503  4.770490553E+00  1.860439579E+01 -7.850711303E+01  8.096178370E+01  4.750000000E+00  0.00000E+00  9.000E+00
      21     1     1     2   512   501 -1.429283496E+01 -1.421571348E+01 -7.637854271E+01  7.899400881E+01  9.536743164E-07  0.00000E+00  9.000E+00
#rwgt            1           9  0.13330344962712684                3       26897           0
</event>
<event>
      6   9999  3.45752E-01  1.87700E+01 -1.00000E+00  1.62343E-01
      21    -1     0     0   511   502  0.000000000E+00  0.000000000E+00  1.447929936E+02  1.447929936E+02  0.000000000E+00  0.00000E+00  9.000E+00
      21    -1     0     0   502   503  0.000000000E+00  0.000000000E+00 -1.077003567E+03  1.077003567E+03  0.000000000E+00  0.00000E+00  9.000E+00
      25     1     1     2     0     0 -9.028240818E+01  7.041432345E+00  8.713709023E+01  1.772539296E+02  1.250023522E+02  0.00000E+00  9.000E+00
       5     1     1     2   501     0  1.908820928E-01 -1.170882725E+00  5.202505553E+00  7.143946133E+00  4.750000000E+00  0.00000E+00  9.000E+00
      -5     1     1     2     0   503  1.017827595E+02 -2.055485417E+01 -1.004761776E+03  1.010124260E+03  4.750000000E+00  0.00000E+00  9.000E+00
      21     1     1     2   511   501 -1.169123337E+01  1.468430455E+01 -1.978839349E+01  2.727442492E+01  5.331201500E-07  0.00000E+00  9.000E+00
#rwgt            1           9   3.6764786421866698E-004           3       29124           0
</event>
<event>
      6   9999  3.45752E-01  9.23374E+00 -1.00000E+00  1.90916E-01
      21    -1     0     0   501   502  0.000000000E+00  0.000000000E+00  6.294750603E+02  6.294750603E+02  0.000000000E+00  0.00000E+00  9.000E+00
       4    -1     0     0   502     0  0.000000000E+00  0.000000000E+00 -4.581572855E+01  4.581572855E+01  0.000000000E+00  0.00000E+00  9.000E+00
      25     1     1     2     0     0 -3.187473258E+00  2.523303277E+00  5.735697572E+02  5.870475374E+02  1.250040710E+02  0.00000E+00  9.000E+00
       5     1     1     2   501     0 -2.559876224E-02 -3.448683089E-01  4.473089022E+01  4.498371515E+01  4.750000000E+00  0.00000E+00  9.000E+00
      -5     1     1     2     0   503  1.222198987E+01 -1.532442271E-01 -3.038109950E+01  3.309039478E+01  4.750000000E+00  0.00000E+00  9.000E+00
       4     1     1     2   503     0 -9.008917852E+00 -2.025190741E+00 -4.260216130E+00  1.016914155E+01  2.149076030E-07  0.00000E+00  9.000E+00
#rwgt            1           9   8.5327584176932191E-004           3       32202           0
</event>
<event>
      6   9999  3.45752E-01  2.42367E+01 -1.00000E+00  1.54092E-01
      -3    -1     0     0     0   502  0.000000000E+00  0.000000000E+00  7.303516334E+01  7.303516334E+01  0.000000000E+00  0.00000E+00  9.000E+00
      21    -1     0     0   502   503  0.000000000E+00  0.000000000E+00 -7.384865436E+02  7.384865436E+02  0.000000000E+00  0.00000E+00  9.000E+00
      25     1     1     2     0     0 -1.825942790E+01  6.913354112E+00 -6.843586084E+02  6.959561599E+02  1.250082813E+02  0.00000E+00  9.000E+00
       5     1     1     2   501     0 -3.867801172E+00  3.607415031E+00  2.438148588E+00  7.515344147E+00  4.750000000E+00  0.00000E+00  9.000E+00
      -5     1     1     2     0   503 -5.126235741E-01 -1.868876963E+00 -4.327455351E+01  4.357757412E+01  4.750000000E+00  0.00000E+00  9.000E+00
      -3     1     1     2     0   501  2.263985265E+01 -8.651892180E+00  5.974363310E+01  6.447262878E+01  2.611744678E-06  0.00000E+00  9.000E+00
#rwgt            1           9   5.1339770646834017E-004           3       35405           0
</event>
<event>
      6   9999  3.45752E-01  8.93993E+00 -1.00000E+00  1.92470E-01
      21    -1     0     0   502   511  0.000000000E+00  0.000000000E+00  1.503331267E+01  1.503331267E+01  0.000000000E+00  0.00000E+00  9.000E+00
      21    -1     0     0   501   502  0.000000000E+00  0.000000000E+00 -7.495150877E+02  7.495150877E+02  0.000000000E+00  0.00000E+00  9.000E+00
      25     1     1     2     0     0 -9.829425696E+00 -9.481435050E+00 -5.103416722E+02  5.256035808E+02  1.249959458E+02  0.00000E+00  9.000E+00
       5     1     1     2   501     0  6.713635935E+00  6.502992651E+00 -2.069097926E+02  2.071752558E+02  4.750000000E+00  0.00000E+00  9.000E+00
      -5     1     1     2     0   503 -5.626419050E+00  1.108638920E+00 -2.083848671E+01  2.212895614E+01  4.750000000E+00  0.00000E+00  9.000E+00
      21     1     1     2   503   511  8.742208810E+00  1.869803479E+00  3.608176485E+00  9.640607734E+00  7.360630652E-07  0.00000E+00  9.000E+00
#rwgt            1           9   6.6364858484505354E-004           3       36709           0
</event>
<event>
      6   9999  3.45752E-01  8.26457E+00 -1.00000E+00  1.96357E-01
      21    -1     0     0   501   502  0.000000000E+00  0.000000000E+00  2.601962867E+01  2.601962867E+01  0.000000000E+00  0.00000E+00  9.000E+00
       1    -1     0     0   502     0  0.000000000E+00  0.000000000E+00 -1.248128082E+03  1.248128082E+03  0.000000000E+00  0.00000E+00  9.000E+00
      25     1     1     2     0     0  1.115822835E+01 -1.705268771E+01 -1.027436120E+03  1.035212022E+03  1.249945954E+02  0.00000E+00  9.000E+00
       5     1     1     2   501     0 -1.625883390E+00 -2.966303509E+00  1.909414270E+01  1.996474990E+01  4.750000000E+00  0.00000E+00  9.000E+00
      -5     1     1     2     0   503 -1.270331877E+00  2.022458732E+01 -4.075530378E+01  4.576248421E+01  4.750000000E+00  0.00000E+00  9.000E+00
       1     1     1     2   503     0 -8.262013084E+00 -2.055961023E-01 -1.730111722E+02  1.732084548E+02  1.907348633E-06  0.00000E+00  9.000E+00
#rwgt            1           9   1.4818027072103869E-004           3       39113           0
</event>
<event>
      6   9999  3.45752E-01  9.83743E+00 -1.00000E+00  1.87947E-01
      21    -1     0     0   501   502  0.000000000E+00  0.000000000E+00  1.474137895E+02  1.474137895E+02  0.000000000E+00  0.00000E+00  9.000E+00
      21    -1     0     0   502   511  0.000000000E+00  0.000000000E+00 -2.679398852E+02  2.679398852E+02  0.000000000E+00  0.00000E+00  9.000E+00
      25     1     1     2     0     0 -2.740934824E+01 -4.263115763E+01  1.814577424E+01  1.360982112E+02  1.249990640E+02  0.00000E+00  9.000E+00
       5     1     1     2   501     0  5.031721482E+00 -2.828652689E+00  6.528874923E+01  6.571531612E+01  4.750000000E+00  0.00000E+00  9.000E+00
      -5     1     1     2     0   503  3.023996908E+01  3.954722595E+01 -1.366340894E+02  1.454987137E+02  4.750000000E+00  0.00000E+00  9.000E+00
      21     1     1     2   503   511 -7.862342325E+00  5.912584372E+00 -6.732652981E+01  6.804143367E+01  9.536743164E-07  0.00000E+00  9.000E+00
#rwgt            1           9   9.1996239973547805E-002           3       43170           0
</event>
<event>
      6   9999  3.45752E-01  2.87451E+01 -1.00000E+00  1.49048E-01
      21    -1     0     0   501   502  0.000000000E+00  0.000000000E+00  5.202163474E+01  5.202163474E+01  0.000000000E+00  0.00000E+00  9.000E+00
      21    -1     0     0   502   512  0.000000000E+00  0.000000000E+00 -1.444956588E+03  1.444956588E+03  0.000000000E+00  0.00000E+00  9.000E+00
      25     1     1     2     0     0 -4.105978608E+01  1.208694415E+02 -6.941721532E+02  7.167997770E+02  1.250264539E+02  0.00000E+00  9.000E+00
       5     1     1     2   501     0  5.318152548E-01  1.903259226E+00  3.446068113E+01  3.484259271E+01  4.750000000E+00  0.00000E+00  9.000E+00
      -5     1     1     2     0   503  1.965875801E+01 -1.030050766E+02 -5.875183224E+02  5.968222971E+02  4.750000000E+00  0.00000E+00  9.000E+00
      21     1     1     2   503   512  2.086921282E+01 -1.976762408E+01 -1.457051591E+02  1.485135562E+02  1.907348633E-06  0.00000E+00  9.000E+00
#rwgt            1           9   3.2494450375019674E-003           3       46686           0
</event>
<event>
      6   9999  3.45752E-01  9.48816E+00 -1.00000E+00  1.89630E-01
      21    -1     0     0   502   503  0.000000000E+00  0.000000000E+00  1.607126101E+02  1.607126101E+02  0.000000000E+00  0.00000E+00  9.000E+00
      21    -1     0     0   511   502  0.000000000E+00  0.000000000E+00 -4.517571064E+01  4.517571064E+01  0.000000000E+00  0.00000E+00  9.000E+00
      25     1     1     2     0     0 -1.513324438E+01 -5.141845227E+00  1.097186557E+02  1.670913122E+02  1.250034781E+02  0.00000E+00  9.000E+00
       5     1     1     2   501     0  1.790126972E+01  1.277664131E+01 -5.462092449E-01  2.250686263E+01  4.750000000E+00  0.00000E+00  9.000E+00
      -5     1     1     2     0   503  1.219223190E+00  9.749137182E-01  4.266380174E+00  6.572781887E+00  4.750000000E+00  0.00000E+00  9.000E+00
      21     1     1     2   511   501 -3.987248531E+00 -8.609709803E+00  2.098072832E+00  9.717364012E+00  6.664001875E-08  0.00000E+00  9.000E+00
#rwgt            1           9   5.2443630944540827E-003           3       48689           0
</event>
<event>
      6   9999  3.45752E-01  2.27358E+01 -1.00000E+00  1.56073E-01
      21    -1     0     0   512   502  0.000000000E+00  0.000000000E+00  1.819483881E+01  1.819483881E+01  0.000000000E+00  0.00000E+00  9.000E+00
      21    -1     0     0   502   503  0.000000000E+00  0.000000000E+00 -1.598584524E+03  1.598584524E+03  0.000000000E+00  0.00000E+00  9.000E+00
      25     1     1     2     0     0  2.109388934E+00  2.582818095E+01 -1.342424419E+03  1.348480700E+03  1.250013354E+02  0.00000E+00  9.000E+00
       5     1     1     2   501     0  5.412287715E+00  4.198672648E+00  6.040468913E+00  1.029424475E+01  4.750000000E+00  0.00000E+00  9.000E+00
      -5     1     1     2     0   503 -1.517376834E+00 -8.098192184E+00 -2.321842438E+02  2.323789335E+02  4.750000000E+00  0.00000E+00  9.000E+00
      21     1     1     2   512   501 -6.004299815E+00 -2.192866142E+01 -1.182149198E+01  2.562548498E+01  1.168007728E-06  0.00000E+00  9.000E+00
#rwgt            1           9   1.1337747575415227                3       51757           0
</event>
<event>
      6   9999  3.45752E-01  1.81055E+01 -1.00000E+00  1.63581E-01
      21    -1     0     0   501   511  0.000000000E+00  0.000000000E+00  1.353100482E+02  1.353100482E+02  0.000000000E+00  0.00000E+00  9.000E+00
      21    -1     0     0   502   503  0.000000000E+00  0.000000000E+00 -1.885036423E+02  1.885036423E+02  0.000000000E+00  0.00000E+00  9.000E+00
      25     1     1     2     0     0  5.848584344E+00 -1.328991611E+01 -1.515350367E+02  1.969709467E+02  1.249954347E+02  0.00000E+00  9.000E+00
       5     1     1     2   501     0 -4.662107316E+00 -1.563854651E+00  8.171458411E+01  8.200010147E+01  4.750000000E+00  0.00000E+00  9.000E+00
      -5     1     1     2     0   503 -7.034033953E+00 -2.281442561E+00 -9.572875100E+00  1.299557815E+01  4.750000000E+00  0.00000E+00  9.000E+00
      21     1     1     2   502   511  5.847556924E+00  1.713521332E+01  2.619973356E+01  3.184706417E+01  3.371747881E-07  0.00000E+00  9.000E+00
#rwgt            1           9   1.0750208259648389E-003           3       53291           0
</event>
<event>
      6   9999  3.45752E-01  1.79014E+01 -1.00000E+00  1.63974E-01
      21    -1     0     0   501   502  0.000000000E+00  0.000000000E+00  8.724063340E+01  8.724063340E+01  0.000000000E+00  0.00000E+00  9.000E+00
      21    -1     0     0   502   512  0.000000000E+00  0.000000000E+00 -1.358350090E+03  1.358350090E+03  0.000000000E+00  0.00000E+00  9.000E+00
      25     1     1     2     0     0  2.203029956E+02 -5.511537441E+01 -4.230218288E+02  4.961285828E+02  1.249999547E+02  0.00000E+00  9.000E+00
       5     1     1     2   501     0  3.731171807E+00  5.671367279E+00  3.553586819E+01  3.648899119E+01  4.750000000E+00  0.00000E+00  9.000E+00
      -5     1     1     2     0   503 -2.062096523E+02  4.778671387E+01 -8.145281159E+02  8.415964620E+02  4.750000000E+00  0.00000E+00  9.000E+00
      21     1     1     2   503   512 -1.782451512E+01  1.657293256E+00 -6.909537975E+01  7.137668711E+01  1.348699152E-06  0.00000E+00  9.000E+00
#rwgt            1           9   1.2355118860965849E-002           3       55248           0
</event>
<event>
      6   9999  3.45752E-01  2.10049E+01 -1.00000E+00  1.58602E-01
      21    -1     0     0   501   511  0.000000000E+00  0.000000000E+00  1.257020491E+02  1.257020491E+02  0.000000000E+00  0.00000E+00  9.000E+00
      21    -1     0     0   502   503  0.000000000E+00  0.000000000E+00 -1.451853089E+03  1.451853089E+03  0.000000000E+00  0.00000E+00  9.000E+00
      25     1     1     2     0     0  2.707010600E+01  1.858589589E+01 -7.926341354E+02  8.031014496E+02  1.249993583E+02  0.00000E+00  9.000E+00
       5     1     1     2   501     0 -3.637530800E+00  1.411874553E+01  2.002337134E+01  2.522039860E+01  4.750000000E+00  0.00000E+00  9.000E+00
      -5     1     1     2     0   503 -1.757476501E+01 -1.253309895E+01 -6.500695105E+02  6.504451414E+02  4.750000000E+00  0.00000E+00  9.000E+00
      21     1     1     2   502   511 -5.857810191E+00 -2.017154247E+01  9.652923487E+01  9.878814833E+01  3.015782986E-06  0.00000E+00  9.000E+00
#rwgt            1           9   8.2531569085723573E-003           3       58428           0
</event>
<event>
      6   9999  3.45752E-01  7.55299E+00 -1.00000E+00  2.01018E-01
      21    -1     0     0   501   502  0.000000000E+00  0.000000000E+00  3.256299953E+01  3.256299953E+01  0.000000000E+00  0.00000E+00  9.000E+00
      21    -1     0     0   512   503  0.000000000E+00  0.000000000E+00 -1.238909311E+03  1.238909311E+03  0.000000000E+00  0.00000E+00  9.000E+00
      25     1     1     2     0     0 -4.667688181E+01 -5.096907370E+01 -3.704656721E+02  3.970469255E+02  1.249994761E+02  0.00000E+00  9.000E+00
       5     1     1     2   501     0 -4.181817488E+00 -4.437161113E+00  1.658652277E+01  1.829894078E+01  4.750000000E+00  0.00000E+00  9.000E+00
      -5     1     1     2     0   503  5.271808521E+01  4.808569293E+01 -7.740409100E+02  7.773373291E+02  4.750000000E+00  0.00000E+00  9.000E+00
      21     1     1     2   512   502 -1.859385912E+00  7.320541881E+00 -7.842625209E+01  7.878911515E+01  0.000000000E+00  0.00000E+00  9.000E+00
#rwgt            1           9   8.4191549495530094E-002           3       60487           0
</event>
<event>
      6   9999  3.45752E-01  8.79865E+00 -1.00000E+00  1.93245E-01
      21    -1     0     0   501   502  0.000000000E+00  0.000000000E+00  8.864320203E+01  8.864320203E+01  0.000000000E+00  0.00000E+00  9.000E+00
      21    -1     0     0   511   503  0.000000000E+00  0.000000000E+00 -2.877494338E+02  2.877494338E+02  0.000000000E+00  0.00000E+00  9.000E+00
      25     1     1     2     0     0  2.614899092E+01  6.830588511E+01 -1.405702198E+02  2.018276260E+02  1.249997610E+02  0.00000E+00  9.000E+00
       5     1     1     2   501     0 -2.521368987E-01  4.958195066E-01  4.468836776E+01  4.494354373E+01  4.750000000E+00  0.00000E+00  9.000E+00
      -5     1     1     2     0   503 -1.723379223E+01 -6.726301742E+01 -9.197468046E+01  1.153395919E+02  4.750000000E+00  0.00000E+00  9.000E+00
      21     1     1     2   511   502 -8.663061790E+00 -1.538687200E+00 -1.124969929E+01  1.428187425E+01  2.665600750E-07  0.00000E+00  9.000E+00
#rwgt            1           9   3.3440036081854670E-004           3       65109           0
</event>
<event>
      6   9999  3.45752E-01  1.54818E+01 -1.00000E+00  1.69190E-01
      21    -1     0     0   501   512  0.000000000E+00  0.000000000E+00  1.682959967E+02  1.682959967E+02  0.000000000E+00  0.00000E+00  9.000E+00
      21    -1     0     0   502   503  0.000000000E+00  0.000000000E+00 -1.415999165E+03  1.415999165E+03  0.000000000E+00  0.00000E+00  9.000E+00
      25     1     1     2     0     0 -1.057294990E+01  1.910521690E+01 -1.359013346E+03  1.364924676E+03  1.250012051E+02  0.00000E+00  9.000E+00
       5     1     1     2   501     0  7.906611326E+00 -1.609865276E+00  5.825817627E+01  5.900579439E+01  4.750000000E+00  0.00000E+00  9.000E+00
      -5     1     1     2     0   503 -7.169977981E+00 -5.539949216E+00 -5.259936599E+01  5.358502986E+01  4.750000000E+00  0.00000E+00  9.000E+00
      21     1     1     2   502   512  9.836316551E+00 -1.195540241E+01  1.056513669E+02  1.067796615E+02  3.568322551E-06  0.00000E+00  9.000E+00
#rwgt            1           9   6.7733149058057316E-005           3       68659           0
</event>
<event>
      6   9999  3.45752E-01  2.27820E+01 -1.00000E+00  1.56010E-01
      21    -1     0     0   511   502  0.000000000E+00  0.000000000E+00  3.087676739E+01  3.087676739E+01  0.000000000E+00  0.00000E+00  9.000E+00
      21    -1     0     0   502   503  0.000000000E+00  0.000000000E+00 -1.986260014E+03  1.986260014E+03  0.000000000E+00  0.00000E+00  9.000E+00
      25     1     1     2     0     0  1.543544824E+01  2.590056871E+01 -1.533406418E+03  1.538788188E+03  1.249990151E+02  0.00000E+00  9.000E+00
       5     1     1     2   501     0 -3.834982822E+00 -1.009501748E+01  2.430708203E+01  2.701875660E+01  4.750000000E+00  0.00000E+00  9.000E+00
      -5     1     1     2     0   503  3.581141148E+00 -3.279200749E+01 -3.753628124E+02  3.768394138E+02  4.750000000E+00  0.00000E+00  9.000E+00
      21     1     1     2   511   501 -1.518160656E+01  1.698645627E+01 -7.092109830E+01  7.449042260E+01  1.348699152E-06  0.00000E+00  9.000E+00
#rwgt            1           9   8.0381705227775305E-004           3       71844           0
</event>
<event>
      6   9999  3.45752E-01  1.66790E+01 -1.00000E+00  1.66473E-01
      21    -1     0     0   501   502  0.000000000E+00  0.000000000E+00  3.619679776E+03  3.619679776E+03  0.000000000E+00  0.00000E+00  9.000E+00
      21    -1     0     0   502   512  0.000000000E+00  0.000000000E+00 -4.060454191E+01  4.060454191E+01  0.000000000E+00  0.00000E+00  9.000E+00
      25     1     1     2     0     0 -4.199944204E+01  3.079703024E+01  1.169037131E+02  1.788954672E+02  1.249987995E+02  0.00000E+00  9.000E+00
       5     1     1     2   501     0 -2.452422899E+00 -1.778988738E+01  3.411943755E+03  3.411994321E+03  4.750000000E+00  0.00000E+00  9.000E+00
      -5     1     1     2     0   503  2.904049252E+01 -6.629249994E+00  2.513155935E+01  3.926136697E+01  4.750000000E+00  0.00000E+00  9.000E+00
      21     1     1     2   503   512  1.541137242E+01 -6.377892861E+00  2.509620591E+01  3.013316227E+01  3.371747881E-07  0.00000E+00  9.000E+00
#rwgt            1           9   6.6994796885945479E-002           3       74003           0
</event>
<event>
      6   9999 -3.45752E-01  6.00076E+01 -1.00000E+00  1.30680E-01
      21    -1     0     0   502   503  0.000000000E+00  0.000000000E+00  1.908323296E+02  1.908323296E+02  0.000000000E+00  0.00000E+00  9.000E+00
      21    -1     0     0   511   502  0.000000000E+00  0.000000000E+00 -8.497297107E+02  8.497297107E+02  0.000000000E+00  0.00000E+00  9.000E+00
      25     1     1     2     0     0  7.888878418E+01 -1.834843383E+01  1.485091396E+02  2.103357086E+02  1.250041618E+02  0.00000E+00  9.000E+00
       5     1     1     2   501     0 -2.011742250E+00  3.695634226E+01 -1.377162726E+02  1.426819981E+02  4.750000000E+00  0.00000E+00  9.000E+00
      -5     1     1     2     0   503 -1.686972924E+01 -1.841471140E+01 -1.382098381E+01  2.893564331E+01  4.750000000E+00  0.00000E+00  9.000E+00
      21     1     1     2   511   501 -6.000731269E+01 -1.931970361E-01 -6.558692644E+02  6.586086902E+02  7.629394531E-06  0.00000E+00  9.000E+00
#rwgt            1           9  -9.3916095983742165E-004           3       76987           0
</event>
<event>
      6   9999  3.45752E-01  1.79354E+01 -1.00000E+00  1.63908E-01
      21    -1     0     0   501   512  0.000000000E+00  0.000000000E+00  3.377360187E+02  3.377360187E+02  0.000000000E+00  0.00000E+00  9.000E+00
      21    -1     0     0   502   503  0.000000000E+00  0.000000000E+00 -1.124479829E+03  1.124479829E+03  0.000000000E+00  0.00000E+00  9.000E+00
      25     1     1     2     0     0  2.894744521E+01  8.667613642E-01 -8.807775509E+02  8.900741537E+02  1.249967960E+02  0.00000E+00  9.000E+00
       5     1     1     2   501     0 -2.774957355E-01  2.321523415E-01  2.439258716E+01  2.485340433E+01  4.750000000E+00  0.00000E+00  9.000E+00
      -5     1     1     2     0   503 -1.491017248E+01 -1.260319997E+01 -2.381394278E+02  2.389855716E+02  4.750000000E+00  0.00000E+00  9.000E+00
      21     1     1     2   502   512 -1.375977700E+01  1.150428626E+01  3.077805810E+02  3.083027183E+02  7.629394531E-06  0.00000E+00  9.000E+00
#rwgt            1           9   1.4816468109348239E-004           3       77952           0
</event>
<event>
      6   9999  3.45752E-01  1.01543E+01 -1.00000E+00  1.86496E-01
      21    -1     0     0   501   511  0.000000000E+00  0.000000000E+00  2.096669911E+01  2.096669911E+01  0.000000000E+00  0.00000E+00  9.000E+00
      21    -1     0     0   502   503  0.000000000E+00  0.000000000E+00 -6.174810116E+02  6.174810116E+02  0.000000000E+00  0.00000E+00  9.000E+00
      25     1     1     2     0     0  1.822596872E+01  1.566886043E+01 -4.950666813E+02  5.111704679E+02  1.250061166E+02  0.00000E+00  9.000E+00
       5     1     1     2   501     0  9.571612059E-02 -4.386419732E-01 -2.287018585E+00  5.290985009E+00  4.750000000E+00  0.00000E+00  9.000E+00
      -5     1     1     2     0   503 -2.499265964E+01 -2.288584024E+01 -1.048874738E+02  1.103283254E+02  4.750000000E+00  0.00000E+00  9.000E+00
      21     1     1     2   502   511  6.670974799E+00  7.655621787E+00  5.726861198E+00  1.165793245E+01  3.264680848E-07  0.00000E+00  9.000E+00
#rwgt            1           9   1.8141670909786291E-003           3       80657           0
</event>
<event>
      6   9999 -3.45752E-01  7.82776E+00 -1.00000E+00  1.99141E-01
      21    -1     0     0   512   502  0.000000000E+00  0.000000000E+00  5.536575126E+01  5.536575126E+01  0.000000000E+00  0.00000E+00  9.000E+00
      21    -1     0     0   502   503  0.000000000E+00  0.000000000E+00 -1.012716834E+03  1.012716834E+03  0.000000000E+00  0.00000E+00  9.000E+00
      25     1     1     2     0     0  1.994027281E+00  1.762591720E+00 -9.519817862E+02  9.601571895E+02  1.250016976E+02  0.00000E+00  9.000E+00
       5     1     1     2   501     0  9.954843902E-01  9.713320289E+00  2.264967792E+01  2.511792169E+01  4.750000000E+00  0.00000E+00  9.000E+00
      -5     1     1     2     0   503  2.283122805E+00 -5.690317817E+00 -5.457419940E+01  5.512257347E+01  4.750000000E+00  0.00000E+00  9.000E+00
      21     1     1     2   512   501 -5.272634476E+00 -5.785594193E+00  2.655522471E+01  2.768490083E+01  1.215700987E-06  0.00000E+00  9.000E+00
#rwgt            1           9  -3.5116697762453222E-003           3       83068           0
</event>
<event>
      6   9999  3.45752E-01  6.95986E+00 -1.00000E+00  2.05457E-01
      21    -1     0     0   511   503  0.000000000E+00  0.000000000E+00  5.216095672E+00  5.216095672E+00  0.000000000E+00  0.00000E+00  9.000E+00
      21    -1     0     0   501   502  0.000000000E+00  0.000000000E+00 -1.966794481E+03  1.966794481E+03  0.000000000E+00  0.00000E+00  9.000E+00
      25     1     1     2     0     0 -5.219753128E+00 -6.345908696E+00 -1.886356707E+03  1.890511446E+03  1.249975400E+02  0.00000E+00  9.000E+00
       5     1     1     2   501     0  1.222185556E-02 -4.086970308E-01 -2.704563371E+01  2.746262889E+01  4.750000000E+00  0.00000E+00  9.000E+00
      -5     1     1     2     0   503  1.462174682E+00  8.884315293E-01 -4.663574281E+01  4.690823246E+01  4.750000000E+00  0.00000E+00  9.000E+00
      21     1     1     2   511   502  3.745356590E+00  5.866174198E+00 -1.540301967E+00  7.128269485E+00  5.575503985E-07  0.00000E+00  9.000E+00
#rwgt            1           9   2.9400023583183469E-003           3       87151           0
</event>
<event>
      6   9999  3.45752E-01  6.99304E+00 -1.00000E+00  2.05194E-01
      21    -1     0     0   501   502  0.000000000E+00  0.000000000E+00  1.130743980E+01  1.130743980E+01  0.000000000E+00  0.00000E+00  9.000E+00
      21    -1     0     0   502   512  0.000000000E+00  0.000000000E+00 -9.780682383E+02  9.780682383E+02  0.000000000E+00  0.00000E+00  9.000E+00
      25     1     1     2     0     0  1.245907604E+01 -2.606652722E+01 -4.560862399E+02  4.737878663E+02  1.250023664E+02  0.00000E+00  9.000E+00
       5     1     1     2   501     0  2.626444661E+00  2.273114177E+00 -5.490729814E+00  8.048346011E+00  4.750000000E+00  0.00000E+00  9.000E+00
      -5     1     1     2     0   503 -1.952954627E+01  2.919279200E+01 -2.782893352E+02  2.805372326E+02  4.750000000E+00  0.00000E+00  9.000E+00
      21     1     1     2   503   512  4.444025566E+00 -5.399378956E+00 -2.268944936E+02  2.270022332E+02  2.697398305E-06  0.00000E+00  9.000E+00
#rwgt            1           9   5.2551793470093002E-003           3       89828           0
</event>
<event>
      6   9999  3.45752E-01  8.47291E+00 -1.00000E+00  1.95107E-01
      21    -1     0     0   501   502  0.000000000E+00  0.000000000E+00  2.991529208E+01  2.991529208E+01  0.000000000E+00  0.00000E+00  9.000E+00
      21    -1     0     0   502   511  0.000000000E+00  0.000000000E+00 -1.216136656E+03  1.216136656E+03  0.000000000E+00  0.00000E+00  9.000E+00
      25     1     1     2     0     0 -1.770834430E+01  5.638018231E+01 -4.569958027E+02  4.774539559E+02  1.249992237E+02  0.00000E+00  9.000E+00
       5     1     1     2   501     0  3.233058778E+00 -3.646741524E+00  1.766873340E+01  1.893404428E+01  4.750000000E+00  0.00000E+00  9.000E+00
      -5     1     1     2     0   503  1.943201210E+01 -4.586168538E+01 -7.119930861E+02  7.137489856E+02  4.750000000E+00  0.00000E+00  9.000E+00
      21     1     1     2   503   511 -4.956726578E+00 -6.871755408E+00 -3.490120865E+01  3.591496243E+01  4.768371582E-07  0.00000E+00  9.000E+00
#rwgt            1           9  0.59367142988572674                3       92874           0
</event>
<event>
      6   9999  3.45752E-01  1.58699E+01 -1.00000E+00  1.68277E-01
      21    -1     0     0   512   502  0.000000000E+00  0.000000000E+00  9.298493313E+00  9.298493313E+00  0.000000000E+00  0.00000E+00  9.000E+00
      21    -1     0     0   502   503  0.000000000E+00  0.000000000E+00 -7.033763395E+02  7.033763395E+02  0.000000000E+00  0.00000E+00  9.000E+00
      25     1     1     2     0     0 -2.709571517E+00  1.385302722E+01 -6.198337647E+02  6.324690273E+02  1.249957063E+02  0.00000E+00  9.000E+00
       5     1     1     2   501     0  2.087416222E-02  1.273343167E+00 -5.836571657E+00  7.632162685E+00  4.750000000E+00  0.00000E+00  9.000E+00
      -5     1     1     2     0   503  3.398468876E+00  7.276793603E-01 -3.612380460E+01  3.660014845E+01  4.750000000E+00  0.00000E+00  9.000E+00
      21     1     1     2   512   501 -7.097715216E-01 -1.585404974E+01 -3.228370525E+01  3.597349432E+01  4.768371582E-07  0.00000E+00  9.000E+00
#rwgt            1           9   4.7406419755511317E-004           3       97356           0
</event>
<event>
      6   9999  3.45752E-01  7.09570E+01 -1.00000E+00  1.27127E-01
      21    -1     0     0   511   502  0.000000000E+00  0.000000000E+00  1.355608356E+02  1.355608356E+02  0.000000000E+00  0.00000E+00  9.000E+00
      21    -1     0     0   502   503  0.000000000E+00  0.000000000E+00 -1.325581337E+03  1.325581337E+03  0.000000000E+00  0.00000E+00  9.000E+00
      25     1     1     2     0     0  6.376984147E+01  1.895456273E+02 -9.935617108E+02  1.021168338E+03  1.250030577E+02  0.00000E+00  9.000E+00
       5     1     1     2   501     0  3.124016400E+01  1.209128633E+01  7.255558749E+01  8.005637281E+01  4.750000000E+00  0.00000E+00  9.000E+00
      -5     1     1     2     0   503 -3.455711447E+01 -1.644839119E+02 -1.878837288E+02  2.521349034E+02  4.750000000E+00  0.00000E+00  9.000E+00
      21     1     1     2   511   501 -6.045289100E+01 -3.715300174E+01 -8.113064880E+01  1.077825577E+02  0.000000000E+00  0.00000E+00  9.000E+00
#rwgt            1           9   7.7375519707941159E-004           3       98864           0
</event>
<event>
      6   9999  3.45752E-01  2.62601E+01 -1.00000E+00  1.51678E-01
      21    -1     0     0   501   502  0.000000000E+00  0.000000000E+00  1.328344005E+03  1.328344005E+03  0.000000000E+00  0.00000E+00  9.000E+00
      21    -1     0     0   512   503  0.000000000E+00  0.000000000E+00 -1.260471541E+02  1.260471541E+02  0.000000000E+00  0.00000E+00  9.000E+00
      25     1     1     2     0     0 -7.436830881E+01  4.287552260E+01  3.557049320E+02  3.866781425E+02  1.250001257E+02  0.00000E+00  9.000E+00
       5     1     1     2   501     0  3.046280040E+00 -1.790804961E+01  9.103177854E+02  9.105114008E+02  4.750000000E+00  0.00000E+00  9.000E+00
      -5     1     1     2     0   503  9.068193733E+01 -4.270976157E+01 -1.447533364E+01  1.013875499E+02  4.750000000E+00  0.00000E+00  9.000E+00
      21     1     1     2   512   502 -1.935990856E+01  1.774228857E+01 -4.925053340E+01  5.581406546E+01  2.132480600E-06  0.00000E+00  9.000E+00
#rwgt            1           9   1.4649863263073470E-002           3      100093           0
</event>
<event>
      6   9999  3.45752E-01  2.19856E+01 -1.00000E+00  1.57135E-01
      21    -1     0     0   502   503  0.000000000E+00  0.000000000E+00  1.352506969E+01  1.352506969E+01  0.000000000E+00  0.00000E+00  9.000E+00
      21    -1     0     0   501   511  0.000000000E+00  0.000000000E+00 -1.581468963E+03  1.581468963E+03  0.000000000E+00  0.00000E+00  9.000E+00
      25     1     1     2     0     0  5.485653934E+01 -1.725647926E+01 -4.132412595E+02  4.355426508E+02  1.249881438E+02  0.00000E+00  9.000E+00
       5     1     1     2   501     0 -3.979632090E+01  3.097637723E+01 -3.604304047E+02  3.639724196E+02  4.750000000E+00  0.00000E+00  9.000E+00
      -5     1     1     2     0   503 -4.031961385E-01  2.667248796E+00 -1.620000996E+01  1.709618689E+01  4.750000000E+00  0.00000E+00  9.000E+00
      21     1     1     2   502   511 -1.465702230E+01 -1.638714677E+01 -7.780722193E+02  7.783827756E+02  1.525878906E-05  0.00000E+00  9.000E+00
#rwgt            1           9   3.4582642194194072E-005           3      102184           0
</event>
<event>
      6   9999 -3.45752E-01  2.25535E+01 -1.00000E+00  1.56327E-01
      21    -1     0     0   512   502  0.000000000E+00  0.000000000E+00  1.831914167E+01  1.831914167E+01  0.000000000E+00  0.00000E+00  9.000E+00
      21    -1     0     0   502   503  0.000000000E+00  0.000000000E+00 -1.920077844E+03  1.920077844E+03  0.000000000E+00  0.00000E+00  9.000E+00
      25     1     1     2     0     0 -8.088480735E+01 -2.217004782E+01 -1.124298467E+03  1.134330623E+03  1.250002194E+02  0.00000E+00  9.000E+00
       5     1     1     2   501     0  1.111242030E+00  3.430874106E+00  7.522855782E+00  9.600084119E+00  4.750000000E+00  0.00000E+00  9.000E+00
      -5     1     1     2     0   503  6.753505539E+01  3.768331441E+01 -7.409791994E+02  7.450192966E+02  4.750000000E+00  0.00000E+00  9.000E+00
      21     1     1     2   512   501  1.223850993E+01 -1.894414069E+01 -4.400389098E+01  4.944698185E+01  4.768371582E-07  0.00000E+00  9.000E+00
#rwgt            1           9 -0.19818349992347525                3      103850           0
</event>
<event>
      6   9999  3.45752E-01  2.18335E+01 -1.00000E+00  1.57356E-01
      21    -1     0     0   501   502  0.000000000E+00  0.000000000E+00  2.880638251E+01  2.880638251E+01  0.000000000E+00  0.00000E+00  9.000E+00
      21    -1     0     0   511   503  0.000000000E+00  0.000000000E+00 -1.199088041E+03  1.199088041E+03  0.000000000E+00  0.00000E+00  9.000E+00
      25     1     1     2     0     0 -7.900390760E+00 -1.723453301E+01 -1.073435858E+03  1.080857632E+03  1.250169338E+02  0.00000E+00  9.000E+00
       5     1     1     2   501     0 -4.907546873E+00 -4.824770620E+00  2.257171515E+01  2.407087977E+01  4.750000000E+00  0.00000E+00  9.000E+00
      -5     1     1     2     0   503 -4.907264551E-01  4.743223326E+00 -1.781707066E+01  1.904598348E+01  4.750000000E+00  0.00000E+00  9.000E+00
      21     1     1     2   511   502  1.329866409E+01  1.731608031E+01 -1.016004450E+02  1.039199284E+02  1.348699152E-06  0.00000E+00  9.000E+00
#rwgt            1           9   9.4633927671778181E-006           3      105675           0
</event>
<event>
      6   9999  3.45752E-01  9.73433E+00 -1.00000E+00  1.88434E-01
      21    -1     0     0   501   502  0.000000000E+00  0.000000000E+00  7.957284904E+00  7.957284904E+00  0.000000000E+00  0.00000E+00  9.000E+00
      21    -1     0     0   512   503  0.000000000E+00  0.000000000E+00 -1.193975254E+03  1.193975254E+03  0.000000000E+00  0.00000E+00  9.000E+00
      25     1     1     2     0     0  2.101240405E+00 -1.325584410E-01 -6.096646739E+02  6.223504761E+02  1.249986709E+02  0.00000E+00  9.000E+00
       5     1     1     2   501     0 -2.223134968E-01  5.535666616E-01 -4.264909103E+00  6.411537179E+00  4.750000000E+00  0.00000E+00  9.000E+00
      -5     1     1     2     0   503  1.369314233E+00  8.755384774E+00 -5.049443002E+01  5.148574314E+01  4.750000000E+00  0.00000E+00  9.000E+00
      21     1     1     2   512   502 -3.248241142E+00 -9.176392994E+00 -5.215939558E+02  5.216847822E+02  7.629394531E-06  0.00000E+00  9.000E+00
#rwgt            1           9   1.2326379378638302E-003           3      107650           0
</event>
<event>
      6   9999  3.45752E-01  7.20788E+00 -1.00000E+00  2.03532E-01
      21    -1     0     0   501   502  0.000000000E+00  0.000000000E+00  3.504782011E+01  3.504782011E+01  0.000000000E+00  0.00000E+00  9.000E+00
       2    -1     0     0   502     0  0.000000000E+00  0.000000000E+00 -2.505106712E+03  2.505106712E+03  0.000000000E+00  0.00000E+00  9.000E+00
      25     1     1     2     0     0 -9.117301669E+00  9.968052998E-01 -1.000988523E+03  1.008804923E+03  1.250009178E+02  0.00000E+00  9.000E+00
       5     1     1     2   501     0  7.909583099E+00  4.913843624E+00  3.021604648E+01  3.197310321E+01  4.750000000E+00  0.00000E+00  9.000E+00
      -5     1     1     2     0   503 -1.316710270E+00  8.407106748E-01 -1.774438911E+02  1.775143304E+02  4.750000000E+00  0.00000E+00  9.000E+00
       2     1     1     2   503     0  2.524428840E+00 -6.751359599E+00 -1.321842523E+03  1.321862175E+03  2.157918644E-05  0.00000E+00  9.000E+00
#rwgt            1           9   8.8335849240823511E-005           3      109716           0
</event>
<event>
      6   9999  3.45752E-01  2.36296E+01 -1.00000E+00  1.54872E-01
      21    -1     0     0   501   502  0.000000000E+00  0.000000000E+00  4.533900846E+01  4.533900846E+01  0.000000000E+00  0.00000E+00  9.000E+00
      21    -1     0     0   511   503  0.000000000E+00  0.000000000E+00 -2.239533190E+03  2.239533190E+03  0.000000000E+00  0.00000E+00  9.000E+00
      25     1     1     2     0     0 -7.751493661E+00 -8.236862619E+00 -1.073727655E+03  1.081038162E+03  1.249979894E+02  0.00000E+00  9.000E+00
       5     1     1     2   501     0 -4.063131457E+00 -5.934743625E-01  4.074502751E+01  4.122597502E+01  4.750000000E+00  0.00000E+00  9.000E+00
      -5     1     1     2     0   503  1.502712823E+01 -1.457982026E+01 -2.082899185E+02  2.093935013E+02  4.750000000E+00  0.00000E+00  9.000E+00
      21     1     1     2   511   502 -3.212503111E+00  2.341015724E+01 -9.529216350E+02  9.532145604E+02  1.078959322E-05  0.00000E+00  9.000E+00
#rwgt            1           9   1.1995338098610836E-005           3      114599           0
</event>
<event>
      6   9999  3.45752E-01  3.44055E+01 -1.00000E+00  1.44089E-01
      21    -1     0     0   501   512  0.000000000E+00  0.000000000E+00  1.297979234E+02  1.297979234E+02  0.000000000E+00  0.00000E+00  9.000E+00
      21    -1     0     0   502   503  0.000000000E+00  0.000000000E+00 -1.443759336E+03  1.443759336E+03  0.000000000E+00  0.00000E+00  9.000E+00
      25     1     1     2     0     0  3.198048441E+02  5.638584883E+01 -9.505863669E+02  1.012271302E+03  1.249969794E+02  0.00000E+00  9.000E+00
       5     1     1     2   501     0  7.790026110E+00  5.487247671E+00  3.796321466E+01  3.942794137E+01  4.750000000E+00  0.00000E+00  9.000E+00
      -5     1     1     2     0   503 -2.942000159E+02 -5.359533533E+01 -3.564590636E+02  4.653082160E+02  4.750000000E+00  0.00000E+00  9.000E+00
      21     1     1     2   502   512 -3.339485424E+01 -8.277761177E+00 -4.487919636E+01  5.654980005E+01  1.066240300E-06  0.00000E+00  9.000E+00
#rwgt            1           9   3.4179301108697976E-002           3      116938           0
</event>
<event>
      6   9999  3.45752E-01  1.78318E+01 -1.00000E+00  1.64110E-01
      21    -1     0     0   501   502  0.000000000E+00  0.000000000E+00  2.498814284E+01  2.498814284E+01  0.000000000E+00  0.00000E+00  9.000E+00
       2    -1     0     0   502     0  0.000000000E+00  0.000000000E+00 -2.070275920E+03  2.070275920E+03  0.000000000E+00  0.00000E+00  9.000E+00
      25     1     1     2     0     0  1.263821212E+01  8.484437181E+01 -5.384310843E+02  5.593670235E+02  1.250005703E+02  0.00000E+00  9.000E+00
       5     1     1     2   501     0 -7.451805400E+00 -2.972100928E+00  9.731975319E+00  1.347726349E+01  4.750000000E+00  0.00000E+00  9.000E+00
      -5     1     1     2     0   503 -1.812329370E+01 -9.414461257E+01 -8.194431868E+02  8.250462779E+02  4.750000000E+00  0.00000E+00  9.000E+00
       2     1     1     2   503     0  1.293688698E+01  1.227234169E+01 -6.971454819E+02  6.973734984E+02  7.629394531E-06  0.00000E+00  9.000E+00
#rwgt            1           9   2.7693595492465349E-003           3      119861           0
</event>
<event>
      6   9999  3.45752E-01  3.24499E+01 -1.00000E+00  1.45666E-01
      21    -1     0     0   501   511  0.000000000E+00  0.000000000E+00  8.037684890E+01  8.037684890E+01  0.000000000E+00  0.00000E+00  9.000E+00
      21    -1     0     0   502   503  0.000000000E+00  0.000000000E+00 -1.686157443E+03  1.686157443E+03  0.000000000E+00  0.00000E+00  9.000E+00
      25     1     1     2     0     0  7.119389697E+01  1.647676480E+02 -2.405818069E+02  3.251476518E+02  1.249977634E+02  0.00000E+00  9.000E+00
       5     1     1     2   501     0  3.006984511E+00 -2.427423626E+00  2.576263858E+01  2.648037741E+01  4.750000000E+00  0.00000E+00  9.000E+00
      -5     1     1     2     0   503 -9.041790983E+01 -1.904471895E+02 -1.321742289E+03  1.338458356E+03  4.750000000E+00  0.00000E+00  9.000E+00
      21     1     1     2   502   511  1.621702835E+01  2.810696514E+01 -6.921913643E+01  7.644790610E+01  0.000000000E+00  0.00000E+00  9.000E+00
#rwgt            1           9   1.1237051490014171E-002           3      122408           0
</event>
<event>
      6   9999  3.45752E-01  2.00664E+02 -1.00000E+00  1.08844E-01
      21    -1     0     0   512   502  0.000000000E+00  0.000000000E+00  6.517224576E+02  6.517224576E+02  0.000000000E+00  0.00000E+00  9.000E+00
      21    -1     0     0   502   503  0.000000000E+00  0.000000000E+00 -1.221235232E+03  1.221235232E+03  0.000000000E+00  0.00000E+00  9.000E+00
      25     1     1     2     0     0 -2.984679346E+01  1.693436549E+01 -4.214462853E+02  4.409277181E+02  1.249907089E+02  0.00000E+00  9.000E+00
       5     1     1     2   501     0 -1.853128778E+01  7.729001298E+01 -2.394939344E+02  2.523827685E+02  4.750000000E+00  0.00000E+00  9.000E+00
      -5     1     1     2     0   503 -1.192992475E+02  1.600420496E+01 -5.212279636E+02  5.349669126E+02  4.750000000E+00  0.00000E+00  9.000E+00
      21     1     1     2   512   501  1.676773288E+02 -1.102285834E+02  6.126554088E+02  6.446802906E+02  1.525878906E-05  0.00000E+00  9.000E+00
#rwgt            1           9   5.9938956911597275E-004           3      124479           0
</event>
<event>
      6   9999 -3.45752E-01  5.74939E+00 -1.00000E+00  2.16672E-01
      21    -1     0     0   501   502  0.000000000E+00  0.000000000E+00  5.728679085E+01  5.728679085E+01  0.000000000E+00  0.00000E+00  9.000E+00
      21    -1     0     0   502   511  0.000000000E+00  0.000000000E+00 -1.377860581E+03  1.377860581E+03  0.000000000E+00  0.00000E+00  9.000E+00
      25     1     1     2     0     0 -3.879140759E+01 -4.993985503E+01 -1.071904006E+03  1.081018867E+03  1.249993220E+02  0.00000E+00  9.000E+00
       5     1     1     2   501     0  5.031918358E+00 -4.354424064E+00  4.879100974E+01  4.947126785E+01  4.750000000E+00  0.00000E+00  9.000E+00
      -5     1     1     2     0   503  3.273246103E+01  4.863736695E+01 -2.488012875E+02  2.556592472E+02  4.750000000E+00  0.00000E+00  9.000E+00
      21     1     1     2   503   511  1.027028208E+00  5.656912146E+00 -4.865950637E+01  4.899798978E+01  0.000000000E+00  0.00000E+00  9.000E+00
#rwgt            1           9  -5.1957447420364331E-002           3      124762           0
</event>
<event>
      6   9999  3.45752E-01  1.41267E+01 -1.00000E+00  1.72660E-01
      21    -1     0     0   512   503  0.000000000E+00  0.000000000E+00  1.194920992E+01  1.194920992E+01  0.000000000E+00  0.00000E+00  9.000E+00
      21    -1     0     0   501   502  0.000000000E+00  0.000000000E+00 -7.927702309E+02  7.927702309E+02  0.000000000E+00  0.00000E+00  9.000E+00
      25     1     1     2     0     0  2.393685250E+00 -6.184466928E+00 -4.880123216E+02  5.038085013E+02  1.249920100E+02  0.00000E+00  9.000E+00
       5     1     1     2   501     0 -4.804991892E+00 -1.084815566E+01 -1.254228118E+02  1.260722597E+02  4.750000000E+00  0.00000E+00  9.000E+00
      -5     1     1     2     0   503  1.584847597E+01  2.139224653E+01 -1.500893725E+02  1.525063429E+02  4.750000000E+00  0.00000E+00  9.000E+00
      21     1     1     2   512   502 -1.343716933E+01 -4.359623945E+00 -1.729651505E+01  2.233233694E+01  4.768371582E-07  0.00000E+00  9.000E+00
#rwgt            1           9   9.9098689633189296E-002           3      130929           0
</event>
<event>
      6   9999  3.45752E-01  5.75880E+01 -1.00000E+00  1.31584E-01
      21    -1     0     0   501   511  0.000000000E+00  0.000000000E+00  7.185983108E+00  7.185983108E+00  0.000000000E+00  0.00000E+00  9.000E+00
      21    -1     0     0   502   503  0.000000000E+00  0.000000000E+00 -2.947462607E+03  2.947462607E+03  0.000000000E+00  0.00000E+00  9.000E+00
      25     1     1     2     0     0 -6.464979833E+00 -5.406457375E+01 -2.531984153E+03  2.535653261E+03  1.250157396E+02  0.00000E+00  9.000E+00
       5     1     1     2   501     0 -1.558327194E+01 -6.968438574E+00 -7.075354180E+01  7.293849243E+01  4.750000000E+00  0.00000E+00  9.000E+00
      -5     1     1     2     0   503 -1.129713000E+01  1.408124493E+01 -8.823698270E+01  9.018998959E+01  4.750000000E+00  0.00000E+00  9.000E+00
      21     1     1     2   502   511  3.334538177E+01  4.695176740E+01 -2.493019470E+02  2.558668476E+02  2.697398305E-06  0.00000E+00  9.000E+00
#rwgt            1           9   4.5963518823988588E-004           3      132713           0
</event>
<event>
      6   9999  3.45752E-01  2.20605E+01 -1.00000E+00  1.57026E-01
      21    -1     0     0   501   512  0.000000000E+00  0.000000000E+00  1.063021882E+03  1.063021882E+03  0.000000000E+00  0.00000E+00  9.000E+00
      21    -1     0     0   502   503  0.000000000E+00  0.000000000E+00 -1.321025382E+02  1.321025382E+02  0.000000000E+00  0.00000E+00  9.000E+00
      25     1     1     2     0     0 -3.189319261E+01 -2.309766421E+01 -5.903998218E+01  1.437435739E+02  1.250032708E+02  0.00000E+00  9.000E+00
       5     1     1     2   501     0  5.688190695E+00 -1.246066480E+00  8.087938015E+02  8.088287112E+02  4.750000000E+00  0.00000E+00  9.000E+00
      -5     1     1     2     0   503  4.300586107E+00  2.696329330E+01 -2.372207511E+01  3.648031762E+01  4.750000000E+00  0.00000E+00  9.000E+00
      21     1     1     2   502   512  2.190441581E+01 -2.619562607E+00  2.048875994E+02  2.060718174E+02  0.000000000E+00  0.00000E+00  9.000E+00
#rwgt            1           9   4.7707907485153913E-004           3      133132           0
</event>
<event>
      6   9999 -3.45752E-01  1.51361E+00 -1.00000E+00  3.88041E-01
      21    -1     0     0   502   503  0.000000000E+00  0.000000000E+00  1.058948973E+01  1.058948973E+01  0.000000000E+00  0.00000E+00  9.000E+00
      21    -1     0     0   501   511  0.000000000E+00  0.000000000E+00 -8.307205101E+02  8.307205101E+02  0.000000000E+00  0.00000E+00  9.000E+00
      25     1     1     2     0     0 -2.254398969E+00  1.617306407E+00 -7.896870639E+02  7.995236679E+02  1.249989546E+02  0.00000E+00  9.000E+00
       5     1     1     2   501     0  9.116073430E-02  5.477182318E-01  2.360526878E+00  5.333187854E+00  4.750000000E+00  0.00000E+00  9.000E+00
      -5     1     1     2     0   503  2.748762904E+00 -7.692512821E-01 -2.446860520E+00  6.057810779E+00  4.750000000E+00  0.00000E+00  9.000E+00
      21     1     1     2   502   511 -5.855246696E-01 -1.395773356E+00 -3.035762280E+01  3.039533327E+01  5.840038640E-07  0.00000E+00  9.000E+00
#rwgt            1           9  -1.3391277780399463E-004           3      136243           0
</event>
<event>
      6   9999  3.45752E-01  1.51539E+01 -1.00000E+00  1.69988E-01
      21    -1     0     0   501   512  0.000000000E+00  0.000000000E+00  1.215573437E+01  1.215573437E+01  0.000000000E+00  0.00000E+00  9.000E+00
      21    -1     0     0   502   503  0.000000000E+00  0.000000000E+00 -8.257345107E+02  8.257345107E+02  0.000000000E+00  0.00000E+00  9.000E+00
      25     1     1     2     0     0 -2.566584474E+00 -2.318776970E+00 -4.527230373E+02  4.696762358E+02  1.250026157E+02  0.00000E+00  9.000E+00
       5     1     1     2   501     0  1.610685201E+00  3.813535007E-01 -2.557772703E+00  5.643087675E+00  4.750000000E+00  0.00000E+00  9.000E+00
      -5     1     1     2     0   503  1.610844138E+01  2.136972286E+00 -3.303119597E+02  3.307455241E+02  4.750000000E+00  0.00000E+00  9.000E+00
      21     1     1     2   502   512 -1.515254211E+01 -1.995488173E-01 -2.798600667E+01  3.182539743E+01  5.840038640E-07  0.00000E+00  9.000E+00
#rwgt            1           9   1.8402862393074381E-002           3      146059           0
</event>
<event>
      6   9999  3.45752E-01  1.13981E+01 -1.00000E+00  1.81399E-01
      21    -1     0     0   501   511  0.000000000E+00  0.000000000E+00  6.081253119E+01  6.081253119E+01  0.000000000E+00  0.00000E+00  9.000E+00
      21    -1     0     0   502   503  0.000000000E+00  0.000000000E+00 -9.097768486E+02  9.097768486E+02  0.000000000E+00  0.00000E+00  9.000E+00
      25     1     1     2     0     0 -1.887679169E+01  3.202917083E+00 -5.193366793E+02  5.345104524E+02  1.249969812E+02  0.00000E+00  9.000E+00
       5     1     1     2   501     0  1.569218498E+00  2.207396392E+00  6.744257085E+00  8.682312431E+00  4.750000000E+00  0.00000E+00  9.000E+00
      -5     1     1     2     0   503  1.718943829E+01  5.987214293E+00 -3.809348509E+02  3.813990648E+02  4.750000000E+00  0.00000E+00  9.000E+00
      21     1     1     2   502   511  1.181349091E-01 -1.139752777E+01  4.456295573E+01  4.599755013E+01  1.507891493E-06  0.00000E+00  9.000E+00
#rwgt            1           9   9.2974485626176225E-003           3      147755           0
</event>
<event>
      6   9999  3.45752E-01  1.33225E+01 -1.00000E+00  1.74959E-01
      21    -1     0     0   512   502  0.000000000E+00  0.000000000E+00  1.569517151E+02  1.569517151E+02  0.000000000E+00  0.00000E+00  9.000E+00
      21    -1     0     0   502   503  0.000000000E+00  0.000000000E+00 -4.580971186E+01  4.580971186E+01  0.000000000E+00  0.00000E+00  9.000E+00
      25     1     1     2     0     0  1.765602474E+01 -6.692516281E+00  7.421788928E+01  1.465862827E+02  1.249908724E+02  0.00000E+00  9.000E+00
       5     1     1     2   501     0  7.224837151E-01  1.374052666E-01  1.458566326E+01  1.535724375E+01  4.750000000E+00  0.00000E+00  9.000E+00
      -5     1     1     2     0   503 -5.821204785E+00  2.104936944E+00 -5.775190909E+00  9.707343340E+00  4.750000000E+00  0.00000E+00  9.000E+00
      21     1     1     2   512   501 -1.255730367E+01  4.450174070E+00  2.811364157E+01  3.111055717E+01  3.371747881E-07  0.00000E+00  9.000E+00
#rwgt            1           9   6.7803028791014727E-002           3      150722           0
</event>
<event>
      6   9999  3.45752E-01  6.22439E+00 -1.00000E+00  2.11861E-01
      21    -1     0     0   501   502  0.000000000E+00  0.000000000E+00  5.235316205E+02  5.235316205E+02  0.000000000E+00  0.00000E+00  9.000E+00
      21    -1     0     0   511   503  0.000000000E+00  0.000000000E+00 -6.658721466E+01  6.658721466E+01  0.000000000E+00  0.00000E+00  9.000E+00
      25     1     1     2     0     0  7.083895180E+00 -2.336220847E+00  2.537352629E+02  2.829544378E+02  1.250039629E+02  0.00000E+00  9.000E+00
       5     1     1     2   501     0  1.710004871E+00  2.432895798E+00  2.434076519E+02  2.434721557E+02  4.750000000E+00  0.00000E+00  9.000E+00
      -5     1     1     2     0   503 -2.692817392E+00  1.136132855E+00  1.088516398E+01  1.223075460E+01  4.750000000E+00  0.00000E+00  9.000E+00
      21     1     1     2   511   502 -6.101082658E+00 -1.232807806E+00 -5.108367284E+01  5.146148711E+01  1.651812370E-06  0.00000E+00  9.000E+00
#rwgt            1           9   6.1489126625509393E-004           3      152616           0
</event>
<event>
      6   9999  3.45752E-01  4.82694E+00 -1.00000E+00  2.32086E-01
      21    -1     0     0   501   502  0.000000000E+00  0.000000000E+00  1.056898806E+01  1.056898806E+01  0.000000000E+00  0.00000E+00  9.000E+00
      21    -1     0     0   502   512  0.000000000E+00  0.000000000E+00 -7.739429864E+02  7.739429864E+02  0.000000000E+00  0.00000E+00  9.000E+00
      25     1     1     2     0     0  1.142541146E+01  4.040617199E+00 -7.171460548E+02  7.280589955E+02  1.249982820E+02  0.00000E+00  9.000E+00
       5     1     1     2   501     0 -5.799749818E-01  3.513316393E-01  2.626778956E+00  5.470125463E+00  4.750000000E+00  0.00000E+00  9.000E+00
      -5     1     1     2     0   503 -7.331707963E+00 -1.082412904E+00 -2.196357175E+01  2.366192180E+01  4.750000000E+00  0.00000E+00  9.000E+00
      21     1     1     2   503   512 -3.513728519E+00 -3.309535934E+00 -2.689115083E+01  2.732093170E+01  0.000000000E+00  0.00000E+00  9.000E+00
#rwgt            1           9   9.9456610414176860E-002           3      156099           0
</event>
<event>
      6   9999  3.45752E-01  1.30418E+01 -1.00000E+00  1.75811E-01
      21    -1     0     0   501   502  0.000000000E+00  0.000000000E+00  3.439810516E+01  3.439810516E+01  0.000000000E+00  0.00000E+00  9.000E+00
      21    -1     0     0   511   503  0.000000000E+00  0.000000000E+00 -1.299099947E+03  1.299099947E+03  0.000000000E+00  0.00000E+00  9.000E+00
      25     1     1     2     0     0 -1.568358050E+01  1.028031825E+02 -7.971711763E+02  8.135819253E+02  1.249767817E+02  0.00000E+00  9.000E+00
       5     1     1     2   501     0  5.493784743E-01  1.363752764E+00  1.936624447E+01  1.999438829E+01  4.750000000E+00  0.00000E+00  9.000E+00
      -5     1     1     2     0   503  5.949328332E+00 -9.490809936E+01 -3.607801463E+02  3.731324406E+02  4.750000000E+00  0.00000E+00  9.000E+00
      21     1     1     2   511   502  9.184873691E+00 -9.258835871E+00 -1.261167636E+02  1.267892977E+02  1.907348633E-06  0.00000E+00  9.000E+00
#rwgt            1           9   1.2846738661565074E-004           3      160044           0
</event>
<event>
      6   9999  3.45752E-01  7.39961E+00 -1.00000E+00  2.02113E-01
      21    -1     0     0   501   512  0.000000000E+00  0.000000000E+00  2.702668158E+02  2.702668158E+02  0.000000000E+00  0.00000E+00  9.000E+00
      21    -1     0     0   502   503  0.000000000E+00  0.000000000E+00 -1.045623479E+03  1.045623479E+03  0.000000000E+00  0.00000E+00  9.000E+00
      25     1     1     2     0     0 -3.623580230E+00 -1.471398005E+01 -4.831317701E+02  4.992703487E+02  1.249997688E+02  0.00000E+00  9.000E+00
       5     1     1     2   501     0  3.805263336E+00 -9.651567365E-01  1.506948690E+01  1.628077062E+01  4.750000000E+00  0.00000E+00  9.000E+00
      -5     1     1     2     0   503 -4.785218331E+00  9.885888914E+00 -5.536965916E+02  5.538258816E+02  4.750000000E+00  0.00000E+00  9.000E+00
      21     1     1     2   502   512  4.603535225E+00  5.793247877E+00  2.464022115E+02  2.465132940E+02  3.814697266E-06  0.00000E+00  9.000E+00
#rwgt            1           9   1.1940479454744723E-004           3      162971           0
</event>
<event>
      6   9999  3.45752E-01  6.45244E+00 -1.00000E+00  2.09753E-01
      21    -1     0     0   501   511  0.000000000E+00  0.000000000E+00  4.911532609E+02  4.911532609E+02  0.000000000E+00  0.00000E+00  9.000E+00
      21    -1     0     0   502   503  0.000000000E+00  0.000000000E+00 -1.378391584E+03  1.378391584E+03  0.000000000E+00  0.00000E+00  9.000E+00
      25     1     1     2     0     0 -9.308454315E+00  1.043654017E+01 -1.183058494E+03  1.189726123E+03  1.250011162E+02  0.00000E+00  9.000E+00
       5     1     1     2   501     0  1.039124459E+01  2.164797344E-01  5.133488977E+01  5.259142739E+01  4.750000000E+00  0.00000E+00  9.000E+00
      -5     1     1     2     0   503 -7.281750426E+00 -8.862255888E+00 -1.911457450E+02  1.915484842E+02  4.750000000E+00  0.00000E+00  9.000E+00
      21     1     1     2   502   511  6.198960151E+00 -1.790764014E+00  4.356310266E+02  4.356788097E+02  0.000000000E+00  0.00000E+00  9.000E+00
#rwgt            1           9   8.3194890339394773E-006           3      166782           0
</event>
<event>
      6   9999  3.45752E-01  2.85518E+01 -1.00000E+00  1.49242E-01
      21    -1     0     0   501   502  0.000000000E+00  0.000000000E+00  9.707652867E+01  9.707652867E+01  0.000000000E+00  0.00000E+00  9.000E+00
      21    -1     0     0   502   512  0.000000000E+00  0.000000000E+00 -1.917515505E+03  1.917515505E+03  0.000000000E+00  0.00000E+00  9.000E+00
      25     1     1     2     0     0  9.119449173E+01  8.050458391E+01 -5.273390605E+02  5.554352828E+02  1.249977812E+02  0.00000E+00  9.000E+00
       5     1     1     2   501     0 -5.211972953E+00 -8.606544861E+00  7.933170504E+01  8.010817187E+01  4.750000000E+00  0.00000E+00  9.000E+00
      -5     1     1     2     0   503 -6.008238165E+01 -8.391426470E+01 -9.361748473E+02  9.418584838E+02  4.750000000E+00  0.00000E+00  9.000E+00
      21     1     1     2   503   512 -2.590013713E+01  1.201622565E+01 -4.362567737E+02  4.371900952E+02  7.629394531E-06  0.00000E+00  9.000E+00
#rwgt            1           9   1.1699667473835062E-002           3      172160           0
</event>
<event>
      6   9999  3.45752E-01  1.74346E+00 -1.00000E+00  3.57800E-01
      21    -1     0     0   502   503  0.000000000E+00  0.000000000E+00  4.154990212E+03  4.154990212E+03  0.000000000E+00  0.00000E+00  9.000E+00
      21    -1     0     0   501   511  0.000000000E+00  0.000000000E+00 -2.430066839E+00  2.430066839E+00  0.000000000E+00  0.00000E+00  9.000E+00
      25     1     1     2     0     0  9.813490921E+00  1.449282679E+01  3.973972958E+03  3.975976922E+03  1.250002774E+02  0.00000E+00  9.000E+00
       5     1     1     2   501     0 -2.562579733E+00  2.897903084E+00  1.038238137E+01  1.205491601E+01  4.750000000E+00  0.00000E+00  9.000E+00
      -5     1     1     2     0   503 -5.739945652E+00 -1.652088511E+01  1.472140069E+02  1.483253618E+02  4.750000000E+00  0.00000E+00  9.000E+00
      21     1     1     2   502   511 -1.510965537E+00 -8.698447647E-01  2.099079906E+01  2.106307889E+01  3.371747881E-07  0.00000E+00  9.000E+00
#rwgt            1           9   1.4688970098394227E-003           3      174690           0
</event>
<event>
      6   9999 -3.45752E-01  3.23336E+00 -1.00000E+00  2.68671E-01
      21    -1     0     0   501   502  0.000000000E+00  0.000000000E+00  9.130668973E+00  9.130668973E+00  0.000000000E+00  0.00000E+00  9.000E+00
      21    -1     0     0   502   512  0.000000000E+00  0.000000000E+00 -2.609323898E+03  2.609323898E+03  0.000000000E+00  0.00000E+00  9.000E+00
      25     1     1     2     0     0  4.383715641E+00  3.820695994E+00 -6.457762672E+02  6.577867808E+02  1.249905878E+02  0.00000E+00  9.000E+00
       5     1     1     2   501     0 -3.274634238E-01  4.384798377E-01  9.511678477E-01  4.875112013E+00  4.750000000E+00  0.00000E+00  9.000E+00
      -5     1     1     2     0   503 -3.785048966E+00 -7.481142835E+00 -1.098839428E+02  1.103056548E+02  4.750000000E+00  0.00000E+00  9.000E+00
      21     1     1     2   503   512 -2.712032507E-01  3.221967003E+00 -1.845484187E+03  1.845487019E+03  3.051757812E-05  0.00000E+00  9.000E+00
#rwgt            1           9  -2.1827020023806216E-003           3      182753           0
</event>
<event>
      6   9999  3.45752E-01  1.80336E+01 -1.00000E+00  1.63719E-01
      21    -1     0     0   501   502  0.000000000E+00  0.000000000E+00  3.650926106E+01  3.650926106E+01  0.000000000E+00  0.00000E+00  9.000E+00
      21    -1     0     0   502   511  0.000000000E+00  0.000000000E+00 -1.476096097E+03  1.476096097E+03  0.000000000E+00  0.00000E+00  9.000E+00
      25     1     1     2     0     0  8.424570654E+01 -4.268771471E+01 -3.462692760E+02  3.800584134E+02  1.249896237E+02  0.00000E+00  9.000E+00
       5     1     1     2   501     0 -4.670030580E+00 -5.497745752E+00  1.600994601E+01  1.819107653E+01  4.750000000E+00  0.00000E+00  9.000E+00
      -5     1     1     2     0   503 -7.910661524E+01  3.015792991E+01 -7.944259689E+02  7.989383830E+02  4.750000000E+00  0.00000E+00  9.000E+00
      21     1     1     2   503   511 -4.690607190E-01  1.802753056E+01 -3.149015366E+02  3.154174847E+02  0.000000000E+00  0.00000E+00  9.000E+00
#rwgt            1           9   1.2261673133897569E-003           3      188084           0
</event>
<event>
      6   9999  3.45752E-01  2.57362E+00 -1.00000E+00  2.95568E-01
      21    -1     0     0   501   512  0.000000000E+00  0.000000000E+00  1.218150194E+01  1.218150194E+01  0.000000000E+00  0.00000E+00  9.000E+00
      21    -1     0     0   502   503  0.000000000E+00  0.000000000E+00 -7.663896274E+02  7.663896274E+02  0.000000000E+00  0.00000E+00  9.000E+00
      25     1     1     2     0     0 -1.383540787E+00  2.672459797E-01 -6.875677090E+02  6.988385487E+02  1.249959080E+02  0.00000E+00  9.000E+00
       5     1     1     2   501     0 -2.542193428E-01 -2.877199819E+00  4.750524753E+00  7.312516099E+00  4.750000000E+00  0.00000E+00  9.000E+00
      -5     1     1     2     0   503 -4.228196021E-01  1.068031063E+00 -6.793792242E+01  6.811345880E+01  4.750000000E+00  0.00000E+00  9.000E+00
      21     1     1     2   502   512  2.060579732E+00  1.541922776E+00 -3.453018814E+00  4.306605810E+00  8.429369702E-08  0.00000E+00  9.000E+00
#rwgt            1           9   9.4210806384701208E-004           3      190705           0
</event>
<event>
      6   9999 -3.45752E-01  4.80063E+00 -1.00000E+00  2.32515E-01
      21    -1     0     0   511   502  0.000000000E+00  0.000000000E+00  5.514985885E+01  5.514985885E+01  0.000000000E+00  0.00000E+00  9.000E+00
      21    -1     0     0   502   503  0.000000000E+00  0.000000000E+00 -7.650897378E+02  7.650897378E+02  0.000000000E+00  0.00000E+00  9.000E+00
      25     1     1     2     0     0 -8.155101789E+00  7.038466914E+00 -6.293044635E+02  6.416905487E+02  1.250064271E+02  0.00000E+00  9.000E+00
       5     1     1     2   501     0 -8.314570069E-01 -1.828355464E-01 -7.481432436E-01  4.883335735E+00  4.750000000E+00  0.00000E+00  9.000E+00
      -5     1     1     2     0   503  4.637583658E+00 -4.822793970E+00 -1.265203679E+02  1.267861684E+02  4.750000000E+00  0.00000E+00  9.000E+00
      21     1     1     2   511   501  4.348975138E+00 -2.032837397E+00  4.663309565E+01  4.687954376E+01  2.023048729E-06  0.00000E+00  9.000E+00
#rwgt            1           9  -4.0081287864242239E-004           3      197063           0
</event>
<event>
      6   9999 -3.45752E-01  1.29006E+01 -1.00000E+00  1.76249E-01
      21    -1     0     0   501   512  0.000000000E+00  0.000000000E+00  2.623976053E+02  2.623976053E+02  0.000000000E+00  0.00000E+00  9.000E+00
      21    -1     0     0   502   503  0.000000000E+00  0.000000000E+00 -6.113044879E+01  6.113044879E+01  0.000000000E+00  0.00000E+00  9.000E+00
      25     1     1     2     0     0 -6.170470138E+00 -6.857195617E+00  1.467386922E+01  1.261961637E+02  1.250002139E+02  0.00000E+00  9.000E+00
       5     1     1     2   501     0 -1.993761127E+00 -9.509244376E-01  1.738694985E+02  1.739483956E+02  4.750000000E+00  0.00000E+00  9.000E+00
      -5     1     1     2     0   503 -4.923004020E-01 -1.756934635E+00 -2.406651829E-01  5.094074865E+00  4.750000000E+00  0.00000E+00  9.000E+00
      21     1     1     2   502   512  8.656531667E+00  9.565054689E+00  1.296445400E+01  1.828941987E+01  0.000000000E+00  0.00000E+00  9.000E+00
#rwgt            1           9  -92.300031629354208                3      202107           0
</event>
<event>
      6   9999 -3.45752E-01  6.39400E+00 -1.00000E+00  2.10281E-01
      21    -1     0     0   501   502  0.000000000E+00  0.000000000E+00  8.043422537E+02  8.043422537E+02  0.000000000E+00  0.00000E+00  9.000E+00
      21    -1     0     0   511   503  0.000000000E+00  0.000000000E+00 -4.246124718E+01  4.246124718E+01  0.000000000E+00  0.00000E+00  9.000E+00
      25     1     1     2     0     0  4.622739132E+01 -3.670699490E+01  1.605998887E+02  2.119014050E+02  1.250020240E+02  0.00000E+00  9.000E+00
       5     1     1     2   501     0 -1.660596723E+00 -8.218776937E-01  2.779181566E+02  2.779649210E+02  4.750000000E+00  0.00000E+00  9.000E+00
      -5     1     1     2     0   503 -3.905480098E+01  3.428831718E+01  3.374528108E+02  3.414643879E+02  4.750000000E+00  0.00000E+00  9.000E+00
      21     1     1     2   511   502 -5.511993620E+00  3.240555406E+00 -1.408984963E+01  1.547278694E+01  8.429369702E-07  0.00000E+00  9.000E+00
#rwgt            1           9  -7.1323398444483252E-003           3      204531           0
</event>
<event>
      6   9999  3.45752E-01  5.08469E+00 -1.00000E+00  2.24587E-01
      21    -1     0     0   501   512  0.000000000E+00  0.000000000E+00  4.427666553E+01  4.427666553E+01  0.000000000E+00  0.00000E+00  9.000E+00
      21    -1     0     0   502   503  0.000000000E+00  0.000000000E+00 -7.953959545E+02  7.953959545E+02  0.000000000E+00  0.00000E+00  9.000E+00
      25     1     1     2     0     0  2.372467915E+01 -7.076562094E+00 -4.170630062E+02  4.360915385E+02  1.249853617E+02  0.00000E+00  9.000E+00
       5     1     1     2   501     0 -1.968229782E+01  1.586723741E+01 -2.441891400E+02  2.455403443E+02  4.750000000E+00  0.00000E+00  9.000E+00
      -5     1     1     2     0   503  7.854864313E-01 -7.195119096E+00 -1.236120783E+02  1.239148705E+02  4.750000000E+00  0.00000E+00  9.000E+00
      21     1     1     2   502   512 -4.827867765E+00 -1.595556217E+00  3.374493556E+01  3.412586677E+01  1.581489940E-06  0.00000E+00  9.000E+00
#rwgt            1           9  0.14664555412850416                3      208736           0
</event>
<event>
      6   9999  3.45752E-01  7.08270E+00 -1.00000E+00  2.04491E-01
      21    -1     0     0   511   502  0.000000000E+00  0.000000000E+00  2.323188529E+01  2.323188529E+01  0.000000000E+00  0.00000E+00  9.000E+00
      21    -1     0     0   502   503  0.000000000E+00  0.000000000E+00 -5.636495526E+02  5.636495526E+02  0.000000000E+00  0.00000E+00  9.000E+00
      25     1     1     2     0     0 -7.196254298E+00 -3.107189059E+01 -4.211815497E+02  4.405032399E+02  1.250278290E+02  0.00000E+00  9.000E+00
       5     1     1     2   501     0  1.923039708E+00  1.426052280E+00  8.132177988E+00  9.717331200E+00  4.750000000E+00  0.00000E+00  9.000E+00
      -5     1     1     2     0   503  7.723186164E+00  3.629131029E+01 -1.224545592E+02  1.280405731E+02  4.750000000E+00  0.00000E+00  9.000E+00
      21     1     1     2   511   501 -2.449971573E+00 -6.645471980E+00 -4.913736437E+00  8.620293749E+00  1.976862425E-07  0.00000E+00  9.000E+00
#rwgt            1           9   3.9559599344834934E-003           3      212515           0
</event>
<event>
      6   9999  3.45752E-01  1.97866E+00 -1.00000E+00  3.34699E-01
      21    -1     0     0   501   502  0.000000000E+00  0.000000000E+00  2.094574030E+01  2.094574030E+01  0.000000000E+00  0.00000E+00  9.000E+00
      21    -1     0     0   512   503  0.000000000E+00  0.000000000E+00 -1.150982095E+03  1.150982095E+03  0.000000000E+00  0.00000E+00  9.000E+00
      25     1     1     2     0     0  3.140580704E+01  3.004989969E+00 -3.927745990E+02  4.133888349E+02  1.249923538E+02  0.00000E+00  9.000E+00
       5     1     1     2   501     0 -1.513377261E+00 -3.398864244E+00  9.393848096E+00  1.116465275E+01  4.750000000E+00  0.00000E+00  9.000E+00
      -5     1     1     2     0   503 -2.791937832E+01  5.427389542E-01 -7.354577137E+02  7.360029874E+02  4.750000000E+00  0.00000E+00  9.000E+00
      21     1     1     2   512   502 -1.973051456E+00 -1.488646790E-01 -1.119788965E+01  1.137135987E+01  1.685873940E-07  0.00000E+00  9.000E+00
#rwgt            1           9  0.12463391907287817                3      216303           0
</event>
<event>
      6   9999  3.45752E-01  4.22857E+01 -1.00000E+00  1.38800E-01
      21    -1     0     0   501   511  0.000000000E+00  0.000000000E+00  2.994913589E+02  2.994913589E+02  0.000000000E+00  0.00000E+00  9.000E+00
      21    -1     0     0   502   503  0.000000000E+00  0.000000000E+00 -1.513018412E+02  1.513018412E+02  0.000000000E+00  0.00000E+00  9.000E+00
      25     1     1     2     0     0 -5.726988772E+01 -1.399660216E+02 -4.129490964E+01  2.004988258E+02  1.249967293E+02  0.00000E+00  9.000E+00
       5     1     1     2   501     0  3.113048830E+01  1.054368458E+02  1.440942500E+02  1.813056842E+02  4.750000000E+00  0.00000E+00  9.000E+00
      -5     1     1     2     0   503 -2.530382985E+00  3.446576009E+00 -7.123162015E-01  6.430522421E+00  4.750000000E+00  0.00000E+00  9.000E+00
      21     1     1     2   502   511  2.866978241E+01  3.108259986E+01  4.610249350E+01  6.255816769E+01  0.000000000E+00  0.00000E+00  9.000E+00
#rwgt            1           9   3476.9551794243594                3      225742           0
</event>
<event>
      6   9999  3.45752E-01  3.40991E+01 -1.00000E+00  1.44328E-01
      21    -1     0     0   501   512  0.000000000E+00  0.000000000E+00  5.790738507E+03  5.790738507E+03  0.000000000E+00  0.00000E+00  9.000E+00
      21    -1     0     0   502   503  0.000000000E+00  0.000000000E+00 -5.338145909E+00  5.338145909E+00  0.000000000E+00  0.00000E+00  9.000E+00
      25     1     1     2     0     0  5.285580279E+01 -3.088650198E+01  1.203371011E+03  1.211390788E+03  1.249725554E+02  0.00000E+00  9.000E+00
       5     1     1     2   501     0  4.052501026E+00 -4.710480837E+00  3.570413314E+03  3.570421881E+03  4.750000000E+00  0.00000E+00  9.000E+00
      -5     1     1     2     0   503 -3.410153386E+01  1.024736778E+01  3.691879435E+02  3.709315614E+02  4.750000000E+00  0.00000E+00  9.000E+00
      21     1     1     2   502   512 -2.280676995E+01  2.534961504E+01  6.424280921E+02  6.433324220E+02  0.000000000E+00  0.00000E+00  9.000E+00
#rwgt            1           9   2.5669486628918234E-004           3      227296           0
</event>
<event>
      6   9999  3.45752E-01  3.62058E+01 -1.00000E+00  1.42743E-01
      21    -1     0     0   501   502  0.000000000E+00  0.000000000E+00  1.611809724E+03  1.611809724E+03  0.000000000E+00  0.00000E+00  9.000E+00
      21    -1     0     0   511   503  0.000000000E+00  0.000000000E+00 -1.080524914E+02  1.080524914E+02  0.000000000E+00  0.00000E+00  9.000E+00
      25     1     1     2     0     0  5.868061384E+01  1.262338744E+02  1.142203804E+03  1.157425743E+03  1.250056646E+02  0.00000E+00  9.000E+00
       5     1     1     2   501     0 -1.243076792E+00  4.003181212E+00  4.067217544E+02  4.067710888E+02  4.750000000E+00  0.00000E+00  9.000E+00
      -5     1     1     2     0   503 -2.926482684E+01 -1.074959324E+02 -4.259610676E+01  1.193683224E+02  4.750000000E+00  0.00000E+00  9.000E+00
      21     1     1     2   511   502 -2.817271021E+01 -2.274112317E+01 -2.572219374E+00  3.629706043E+01  8.570434954E-07  0.00000E+00  9.000E+00
#rwgt            1           9   3.6501332333965428E-004           3      228752           0
</event>
<event>
      6   9999 -3.45752E-01  5.02190E+00 -1.00000E+00  2.25421E-01
      21    -1     0     0   501   502  0.000000000E+00  0.000000000E+00  3.127397666E+01  3.127397666E+01  0.000000000E+00  0.00000E+00  9.000E+00
      21    -1     0     0   502   512  0.000000000E+00  0.000000000E+00 -1.165957139E+03  1.165957139E+03  0.000000000E+00  0.00000E+00  9.000E+00
      25     1     1     2     0     0  1.247669205E+00  5.744024912E+00 -1.054439781E+03  1.061838933E+03  1.249964645E+02  0.00000E+00  9.000E+00
       5     1     1     2   501     0 -2.236952462E+00  7.123683130E-01  2.695840092E+01  2.747415704E+01  4.750000000E+00  0.00000E+00  9.000E+00
      -5     1     1     2     0   503 -2.672518420E+00 -3.019731605E+00 -8.100210765E+01  8.124140003E+01  4.750000000E+00  0.00000E+00  9.000E+00
      21     1     1     2   503   512  3.661801676E+00 -3.436661620E+00 -2.619967389E+01  2.667662547E+01  3.371747881E-07  0.00000E+00  9.000E+00
#rwgt            1           9  -2.4037319326629589E-002           3      230787           0
</event>
<event>
      6   9999  3.45752E-01  2.00963E+00 -1.00000E+00  3.32081E-01
      21    -1     0     0   501   511  0.000000000E+00  0.000000000E+00  9.475331670E+00  9.475331670E+00  0.000000000E+00  0.00000E+00  9.000E+00
      21    -1     0     0   502   503  0.000000000E+00  0.000000000E+00 -8.781152183E+02  8.781152183E+02  0.000000000E+00  0.00000E+00  9.000E+00
      25     1     1     2     0     0 -2.959880365E+00  3.838482442E-01 -8.086894537E+02  8.182986262E+02  1.250004038E+02  0.00000E+00  9.000E+00
       5     1     1     2   501     0 -3.288794822E-01 -5.492809389E-02  3.123194502E+00  5.694560800E+00  4.750000000E+00  0.00000E+00  9.000E+00
      -5     1     1     2     0   503  1.412995893E+00  3.922744318E-01 -5.662634644E+01  5.684413821E+01  4.750000000E+00  0.00000E+00  9.000E+00
      21     1     1     2   502   511  1.875763954E+00 -7.211945821E-01 -6.447281027E+00  6.753224761E+00  1.460009660E-07  0.00000E+00  9.000E+00
#rwgt            1           9   4.6572596456125829E-004           3      236758           0
</event>
<event>
      6   9999  3.45752E-01  1.20266E+01 -1.00000E+00  1.79129E-01
      21    -1     0     0   501   512  0.000000000E+00  0.000000000E+00  2.238458793E+01  2.238458793E+01  0.000000000E+00  0.00000E+00  9.000E+00
      21    -1     0     0   502   503  0.000000000E+00  0.000000000E+00 -1.008397668E+03  1.008397668E+03  0.000000000E+00  0.00000E+00  9.000E+00
      25     1     1     2     0     0 -4.947127037E+00 -4.350827710E+01 -4.472520024E+02  4.664516549E+02  1.250013938E+02  0.00000E+00  9.000E+00
       5     1     1     2   501     0 -2.992467557E+00  1.202854824E+00  8.465658608E+00  1.022895877E+01  4.750000000E+00  0.00000E+00  9.000E+00
      -5     1     1     2     0   503 -4.335714792E-01  3.367236855E+01 -5.376588983E+02  5.387333940E+02  4.750000000E+00  0.00000E+00  9.000E+00
      21     1     1     2   502   512  8.373166074E+00  8.633053727E+00 -9.567837568E+00  1.536824787E+01  5.331201500E-07  0.00000E+00  9.000E+00
#rwgt            1           9   6.6096565173099031E-002           3      244103           0
</event>
<event>
      6   9999  3.45752E-01  7.74174E+00 -1.00000E+00  1.99718E-01
      21    -1     0     0   511   502  0.000000000E+00  0.000000000E+00  2.532575750E+01  2.532575750E+01  0.000000000E+00  0.00000E+00  9.000E+00
      21    -1     0     0   502   503  0.000000000E+00  0.000000000E+00 -1.033577028E+03  1.033577028E+03  0.000000000E+00  0.00000E+00  9.000E+00
      25     1     1     2     0     0  1.408378144E+01 -1.808035869E+01 -9.824569073E+02  9.906422738E+02  1.250011506E+02  0.00000E+00  9.000E+00
       5     1     1     2   501     0  2.877353581E+00  2.605402560E+00  1.761825557E+01  1.865563496E+01  4.750000000E+00  0.00000E+00  9.000E+00
      -5     1     1     2     0   503 -1.091025936E+01  1.064572983E+01 -2.543379077E+01  3.003007719E+01  4.750000000E+00  0.00000E+00  9.000E+00
      21     1     1     2   511   501 -6.050875666E+00  4.829226310E+00 -1.797882850E+01  1.957480006E+01  4.129530925E-07  0.00000E+00  9.000E+00
#rwgt            1           9  0.13906655368743642                3      246678           0
</event>
<event>
      6   9999  3.45752E-01  1.11154E+01 -1.00000E+00  1.82483E-01
      21    -1     0     0   501   502  0.000000000E+00  0.000000000E+00  9.880223365E+02  9.880223365E+02  0.000000000E+00  0.00000E+00  9.000E+00
      21    -1     0     0   512   503  0.000000000E+00  0.000000000E+00 -1.755870445E+01  1.755870445E+01  0.000000000E+00  0.00000E+00  9.000E+00
      25     1     1     2     0     0 -1.487393061E+01  1.788664292E+01  8.574021230E+02  8.667790894E+02  1.250056936E+02  0.00000E+00  9.000E+00
       5     1     1     2   501     0  3.978514695E-01  5.661640348E-01  6.743055455E+01  6.760119092E+01  4.750000000E+00  0.00000E+00  9.000E+00
      -5     1     1     2     0   503  2.091325484E+01 -9.391103192E+00  5.294808073E+01  5.789316712E+01  4.750000000E+00  0.00000E+00  9.000E+00
      21     1     1     2   512   502 -6.437175697E+00 -9.061703764E+00 -7.317126311E+00  1.330759345E+01  1.171045465E-06  0.00000E+00  9.000E+00
#rwgt            1           9   1.1600430439617161E-003           3      250344           0
</event>
<event>
      6   9999  3.45752E-01  3.97325E+00 -1.00000E+00  2.48455E-01
      21    -1     0     0   501   511  0.000000000E+00  0.000000000E+00  7.869195652E+00  7.869195652E+00  0.000000000E+00  0.00000E+00  9.000E+00
      21    -1     0     0   502   503  0.000000000E+00  0.000000000E+00 -8.328365805E+02  8.328365805E+02  0.000000000E+00  0.00000E+00  9.000E+00
      25     1     1     2     0     0 -8.136440029E+00  1.281400137E-01 -6.971831039E+02  7.083475050E+02  1.250027580E+02  0.00000E+00  9.000E+00
       5     1     1     2   501     0  7.986108239E-01 -4.555610980E-01 -1.495115493E+00  5.063910100E+00  4.750000000E+00  0.00000E+00  9.000E+00
      -5     1     1     2     0   503  8.684781742E+00  4.065390334E+00 -1.103412899E+02  1.108589897E+02  4.750000000E+00  0.00000E+00  9.000E+00
      21     1     1     2   502   511 -1.346952537E+00 -3.737969249E+00 -1.594787554E+01  1.643537129E+01  1.685873940E-07  0.00000E+00  9.000E+00
#rwgt            1           9   6.5045350149457129E-005           3      252522           0
</event>
<event>
      6   9999  3.45752E-01  2.54386E+01 -1.00000E+00  1.52626E-01
      21    -1     0     0   512   503  0.000000000E+00  0.000000000E+00  1.001303188E+02  1.001303188E+02  0.000000000E+00  0.00000E+00  9.000E+00
      21    -1     0     0   501   502  0.000000000E+00  0.000000000E+00 -8.166130935E+02  8.166130935E+02  0.000000000E+00  0.00000E+00  9.000E+00
      25     1     1     2     0     0 -3.510677331E+01  8.876614329E+00 -4.037574159E+02  4.242116935E+02  1.249969210E+02  0.00000E+00  9.000E+00
       5     1     1     2   501     0 -5.229302128E+00 -8.396165348E+00 -1.891828342E+02  1.895007874E+02  4.750000000E+00  0.00000E+00  9.000E+00
      -5     1     1     2     0   503  1.648429932E+01 -9.324246397E+00 -2.110242632E+02  2.119256375E+02  4.750000000E+00  0.00000E+00  9.000E+00
      21     1     1     2   512   502  2.385177611E+01  8.843797416E+00  8.748173857E+01  9.110529381E+01  2.336015456E-06  0.00000E+00  9.000E+00
#rwgt            1           9   1.0903912418856975E-003           3      257178           0
</event>
<event>
      6   9999  3.45752E-01  1.53430E+01 -1.00000E+00  1.69525E-01
      21    -1     0     0   511   502  0.000000000E+00  0.000000000E+00  1.342004554E+01  1.342004554E+01  0.000000000E+00  0.00000E+00  9.000E+00
      21    -1     0     0   502   503  0.000000000E+00  0.000000000E+00 -8.157978509E+02  8.157978509E+02  0.000000000E+00  0.00000E+00  9.000E+00
      25     1     1     2     0     0 -1.857907512E+01 -1.611493147E+00 -6.594089711E+02  6.714109092E+02  1.249985557E+02  0.00000E+00  9.000E+00
       5     1     1     2   501     0 -1.241604048E+00 -6.006006773E-01  4.584076565E+00  6.743779337E+00  4.750000000E+00  0.00000E+00  9.000E+00
      -5     1     1     2     0   503  8.984224156E+00 -8.649681282E+00 -1.046867601E+02  1.055339448E+02  4.750000000E+00  0.00000E+00  9.000E+00
      21     1     1     2   511   501  1.083645501E+01  1.086177511E+01 -4.286615082E+01  4.552926314E+01  8.259061849E-07  0.00000E+00  9.000E+00
#rwgt            1           9   1.1499516685664945E-004           3      258310           0
</event>
<event>
      6   9999  3.45752E-01  1.30207E+01 -1.00000E+00  1.75875E-01
      21    -1     0     0   512   502  0.000000000E+00  0.000000000E+00  2.723745064E+02  2.723745064E+02  0.000000000E+00  0.00000E+00  9.000E+00
      21    -1     0     0   502   503  0.000000000E+00  0.000000000E+00 -2.443018541E+03  2.443018541E+03  0.000000000E+00  0.00000E+00  9.000E+00
      25     1     1     2     0     0 -2.238953952E+02 -8.843256051E+01 -8.575262704E+02  8.994027393E+02  1.249980692E+02  0.00000E+00  9.000E+00
       5     1     1     2   501     0  2.831590007E+01  2.051396853E+01  2.391503586E+02  2.417396732E+02  4.750000000E+00  0.00000E+00  9.000E+00
      -5     1     1     2     0   503  1.983974888E+02  5.520647799E+01 -1.546242748E+03  1.559903368E+03  4.750000000E+00  0.00000E+00  9.000E+00
      21     1     1     2   512   501 -2.817993690E+00  1.271211399E+01 -6.025375033E+00  1.434726716E+01  4.768371582E-07  0.00000E+00  9.000E+00
#rwgt            1           9   3.4341993231940507E-003           3      260262           0
</event>
<event>
      6   9999 -3.45752E-01  5.57888E+00 -1.00000E+00  2.18557E-01
      21    -1     0     0   502   503  0.000000000E+00  0.000000000E+00  1.425158892E+01  1.425158892E+01  0.000000000E+00  0.00000E+00  9.000E+00
      21    -1     0     0   501   511  0.000000000E+00  0.000000000E+00 -5.505178935E+02  5.505178935E+02  0.000000000E+00  0.00000E+00  9.000E+00
      25     1     1     2     0     0  3.571511155E+01 -9.257411183E+00 -3.769449767E+02  3.988393404E+02  1.249961403E+02  0.00000E+00  9.000E+00
       5     1     1     2   501     0 -1.161587430E+01  1.157230674E+01 -5.512931032E+01  5.771178541E+01  4.750000000E+00  0.00000E+00  9.000E+00
      -5     1     1     2     0   503 -2.010524972E+01  1.580224836E+00 -5.609881652E+01  5.980265790E+01  4.750000000E+00  0.00000E+00  9.000E+00
      21     1     1     2   502   511 -3.993987528E+00 -3.895120393E+00 -4.809320100E+01  4.841569871E+01  6.743495762E-07  0.00000E+00  9.000E+00
#rwgt            1           9  -3.4146393107606827                3      265731           0
</event>
<event>
      6   9999  3.45752E-01  1.22969E+01 -1.00000E+00  1.78206E-01
      21    -1     0     0   501   502  0.000000000E+00  0.000000000E+00  1.520539830E+01  1.520539830E+01  0.000000000E+00  0.00000E+00  9.000E+00
      21    -1     0     0   512   503  0.000000000E+00  0.000000000E+00 -3.465091827E+03  3.465091827E+03  0.000000000E+00  0.00000E+00  9.000E+00
      25     1     1     2     0     0 -1.092953121E+01 -6.921468111E+00 -3.274638653E+03  3.277049041E+03  1.249990025E+02  0.00000E+00  9.000E+00
       5     1     1     2   501     0  7.620763944E+00  1.052438258E+01  9.763458080E+00  1.693299399E+01  4.750000000E+00  0.00000E+00  9.000E+00
      -5     1     1     2     0   503  4.777324445E-01  8.363617190E+00 -7.358856853E+01  7.421602414E+01  4.750000000E+00  0.00000E+00  9.000E+00
      21     1     1     2   512   502  2.831034817E+00 -1.196653166E+01 -1.114226656E+02  1.120991661E+02  1.348699152E-06  0.00000E+00  9.000E+00
#rwgt            1           9   1.1329334656518521E-004           3      269542           0
</event>
<event>
      6   9999  3.45752E-01  4.87588E+00 -1.00000E+00  2.31299E-01
      21    -1     0     0   501   502  0.000000000E+00  0.000000000E+00  8.651088109E+00  8.651088109E+00  0.000000000E+00  0.00000E+00  9.000E+00
      21    -1     0     0   511   503  0.000000000E+00  0.000000000E+00 -7.678304215E+02  7.678304215E+02  0.000000000E+00  0.00000E+00  9.000E+00
      25     1     1     2     0     0  2.528112564E+00  8.598406932E-02 -6.914315427E+02  7.026448370E+02  1.250031596E+02  0.00000E+00  9.000E+00
       5     1     1     2   501     0  3.338222300E-01  1.732279859E+00  1.352355857E-01  5.068828213E+00  4.750000000E+00  0.00000E+00  9.000E+00
      -5     1     1     2     0   503 -1.625319678E+00  2.898199229E+00 -4.494691538E+01  4.531918936E+01  4.750000000E+00  0.00000E+00  9.000E+00
      21     1     1     2   511   502 -1.236615117E+00 -4.716463158E+00 -2.293611089E+01  2.344865506E+01  0.000000000E+00  0.00000E+00  9.000E+00
#rwgt            1           9   2.1372313737686032E-003           3      272673           0
</event>
<event>
      6   9999  3.45752E-01  2.29824E+02 -1.00000E+00  1.06845E-01
       1    -1     0     0   501     0  0.000000000E+00  0.000000000E+00  3.458936494E+02  3.458936494E+02  0.000000000E+00  0.00000E+00  9.000E+00
      21    -1     0     0   502   503  0.000000000E+00  0.000000000E+00 -1.167789402E+03  1.167789402E+03  0.000000000E+00  0.00000E+00  9.000E+00
      25     1     1     2     0     0 -3.713372307E+02  2.450371340E+02 -5.247346797E+02  6.992192519E+02  1.250061688E+02  0.00000E+00  9.000E+00
       5     1     1     2   501     0  1.331474612E+02 -1.352783646E+02 -2.340257789E+02  3.013620912E+02  4.750000000E+00  0.00000E+00  9.000E+00
      -5     1     1     2     0   503  7.204042202E+01  4.902938590E+01 -2.187724407E+02  2.355369321E+02  4.750000000E+00  0.00000E+00  9.000E+00
       1     1     1     2   502     0  1.661493475E+02 -1.587881553E+02  1.556371463E+02  2.775647766E+02  1.907348633E-06  0.00000E+00  9.000E+00
#rwgt            1           9   8.7433947407667342E-003           3      276439           0
</event>
<event>
      6   9999  3.45752E-01  1.25572E+01 -1.00000E+00  1.77345E-01
      21    -1     0     0   501   511  0.000000000E+00  0.000000000E+00  7.701408722E+01  7.701408722E+01  0.000000000E+00  0.00000E+00  9.000E+00
      21    -1     0     0   502   503  0.000000000E+00  0.000000000E+00 -1.001573120E+03  1.001573120E+03  0.000000000E+00  0.00000E+00  9.000E+00
      25     1     1     2     0     0 -7.907182175E+00 -1.993994188E+01 -8.470558646E+02  8.564980493E+02  1.250005838E+02  0.00000E+00  9.000E+00
       5     1     1     2   501     0  4.057038563E+00 -7.337505709E+00  1.218092249E+01  1.553177146E+01  4.750000000E+00  0.00000E+00  9.000E+00
      -5     1     1     2     0   503  8.902865209E-01  1.507403225E+01 -1.470163194E+02  1.478660871E+02  4.750000000E+00  0.00000E+00  9.000E+00
      21     1     1     2   502   511  2.959857091E+00  1.220341534E+01  5.733222899E+01  5.869129902E+01  1.507891493E-06  0.00000E+00  9.000E+00
#rwgt            1           9   211.32707081251527                3      277061           0
</event>
<event>
      6   9999  3.45752E-01  1.38660E+01 -1.00000E+00  1.73384E-01
      21    -1     0     0   501   512  0.000000000E+00  0.000000000E+00  4.666004732E+01  4.666004732E+01  0.000000000E+00  0.00000E+00  9.000E+00
      21    -1     0     0   502   503  0.000000000E+00  0.000000000E+00 -1.254768419E+03  1.254768419E+03  0.000000000E+00  0.00000E+00  9.000E+00
      25     1     1     2     0     0 -2.184181823E+01 -3.080697474E+01 -8.469582683E+02  8.569651753E+02  1.249994751E+02  0.00000E+00  9.000E+00
       5     1     1     2   501     0 -1.351361466E+01  6.612997363E+00  3.056871168E+01  3.439997309E+01  4.750000000E+00  0.00000E+00  9.000E+00
      -5     1     1     2     0   503  2.470890909E+01  3.307759667E+01 -3.938480653E+02  3.960347442E+02  4.750000000E+00  0.00000E+00  9.000E+00
      21     1     1     2   502   512  1.064652380E+01 -8.883619301E+00  2.129250601E+00  1.402857331E+01  2.230201594E-07  0.00000E+00  9.000E+00
#rwgt            1           9   3.1896783136327778E-004           3      279638           0
</event>
<event>
      6   9999  3.45752E-01  7.27752E+00 -1.00000E+00  2.03010E-01
      21    -1     0     0   501   511  0.000000000E+00  0.000000000E+00  4.944394764E+02  4.944394764E+02  0.000000000E+00  0.00000E+00  9.000E+00
      21    -1     0     0   502   503  0.000000000E+00  0.000000000E+00 -1.373095603E+01  1.373095603E+01  0.000000000E+00  0.00000E+00  9.000E+00
      25     1     1     2     0     0  1.006101161E+01 -1.649413936E+01  3.486127885E+02  3.708490919E+02  1.249995682E+02  0.00000E+00  9.000E+00
       5     1     1     2   501     0 -3.153409343E+00  2.289487877E+01  7.567860168E+01  7.927126035E+01  4.750000000E+00  0.00000E+00  9.000E+00
      -5     1     1     2     0   503 -1.751585458E+00 -1.264805931E+00  1.268242921E+01  1.371401824E+01  4.750000000E+00  0.00000E+00  9.000E+00
      21     1     1     2   502   511 -5.156016813E+00 -5.135933480E+00  4.373470093E+01  4.433606193E+01  0.000000000E+00  0.00000E+00  9.000E+00
#rwgt            1           9  0.94891101304024417                3      282801           0
</event>
<event>
      6   9999  3.45752E-01  1.03305E+01 -1.00000E+00  1.85719E-01
      21    -1     0     0   501   512  0.000000000E+00  0.000000000E+00  2.205188126E+01  2.205188126E+01  0.000000000E+00  0.00000E+00  9.000E+00
      21    -1     0     0   502   503  0.000000000E+00  0.000000000E+00 -8.487890282E+02  8.487890282E+02  0.000000000E+00  0.00000E+00  9.000E+00
      25     1     1     2     0     0 -1.723078685E+01 -1.071216035E+00 -7.619523061E+02  7.723305644E+02  1.250005455E+02  0.00000E+00  9.000E+00
       5     1     1     2   501     0 -1.010274342E+00 -8.526017827E-01  8.510961588E+00  9.835982473E+00  4.750000000E+00  0.00000E+00  9.000E+00
      -5     1     1     2     0   503  2.622087536E+01 -4.636728531E+00 -7.352399405E+01  7.834139236E+01  4.750000000E+00  0.00000E+00  9.000E+00
      21     1     1     2   502   512 -7.979814168E+00  6.560546348E+00  2.281916226E-01  1.033297024E+01  2.178100494E-07  0.00000E+00  9.000E+00
#rwgt            1           9   3.1070735032444060E-002           3      285486           0
</event>
<event>
      6   9999 -3.45752E-01  6.81156E+00 -1.00000E+00  2.06661E-01
      21    -1     0     0   501   511  0.000000000E+00  0.000000000E+00  2.214067790E+02  2.214067790E+02  0.000000000E+00  0.00000E+00  9.000E+00
      21    -1     0     0   502   503  0.000000000E+00  0.000000000E+00 -1.326716286E+03  1.326716286E+03  0.000000000E+00  0.00000E+00  9.000E+00
      25     1     1     2     0     0 -1.205579969E+01 -1.721837541E+01 -1.301459399E+03  1.307617461E+03  1.250001726E+02  0.00000E+00  9.000E+00
       5     1     1     2   501     0  2.064419787E+00 -1.837200767E+00  2.447909300E+00  6.015970051E+00  4.750000000E+00  0.00000E+00  9.000E+00
      -5     1     1     2     0   503  8.138723843E+00  1.250080332E+01 -1.732652223E+01  2.335122657E+01  4.750000000E+00  0.00000E+00  9.000E+00
      21     1     1     2   502   511  1.852656062E+00  6.554772859E+00  2.110285046E+02  2.111384075E+02  6.031565972E-06  0.00000E+00  9.000E+00
#rwgt            1           9  -6.5224858157835169E-005           3      288295           0
</event>
<event>
      6   9999  3.45752E-01  1.14367E+01 -1.00000E+00  1.81255E-01
      21    -1     0     0   501   502  0.000000000E+00  0.000000000E+00  1.102663266E+01  1.102663266E+01  0.000000000E+00  0.00000E+00  9.000E+00
      21    -1     0     0   512   503  0.000000000E+00  0.000000000E+00 -9.020367657E+02  9.020367657E+02  0.000000000E+00  0.00000E+00  9.000E+00
      25     1     1     2     0     0 -6.457216507E+00 -3.590518352E+01 -5.699465409E+02  5.846335479E+02  1.250057918E+02  0.00000E+00  9.000E+00
       5     1     1     2   501     0  1.313139281E+00 -1.546568493E+00 -7.669033603E-02  5.165712950E+00  4.750000000E+00  0.00000E+00  9.000E+00
      -5     1     1     2     0   503  2.506798002E+00  2.632331122E+01 -2.259478533E+02  2.275394376E+02  4.750000000E+00  0.00000E+00  9.000E+00
      21     1     1     2   512   502  2.637279224E+00  1.112844079E+01 -9.503904846E+01  9.572469988E+01  1.348699152E-06  0.00000E+00  9.000E+00
#rwgt            1           9   1.4031815240815548                3      291866           0
</event>
<event>
      6   9999 -3.45752E-01  2.30323E+01 -1.00000E+00  1.55668E-01
      21    -1     0     0   511   502  0.000000000E+00  0.000000000E+00  4.225159899E+01  4.225159899E+01  0.000000000E+00  0.00000E+00  9.000E+00
      21    -1     0     0   502   503  0.000000000E+00  0.000000000E+00 -1.441539762E+03  1.441539762E+03  0.000000000E+00  0.00000E+00  9.000E+00
      25     1     1     2     0     0 -4.524488394E+00 -1.816425123E+01 -1.398207552E+03  1.403908592E+03  1.249982659E+02  0.00000E+00  9.000E+00
       5     1     1     2   501     0  6.820663394E+00 -7.126646910E+00  3.339046109E+01  3.513966331E+01  4.750000000E+00  0.00000E+00  9.000E+00
      -5     1     1     2     0   503  3.800961974E-01  2.414583757E+00 -8.406112815E+00  9.959915687E+00  4.750000000E+00  0.00000E+00  9.000E+00
      21     1     1     2   511   501 -2.676271198E+00  2.287631438E+01 -2.606496017E+01  3.478319042E+01  4.768371582E-07  0.00000E+00  9.000E+00
#rwgt            1           9  -4.1419155747578637E-002           3      294032           0
</event>
<event>
      6   9999  3.45752E-01  3.16695E+00 -1.00000E+00  2.70901E-01
      21    -1     0     0   501   502  0.000000000E+00  0.000000000E+00  1.538220886E+03  1.538220886E+03  0.000000000E+00  0.00000E+00  9.000E+00
      21    -1     0     0   502   512  0.000000000E+00  0.000000000E+00 -2.321151530E+01  2.321151530E+01  0.000000000E+00  0.00000E+00  9.000E+00
      25     1     1     2     0     0  8.266762492E+00  9.663399021E-01  9.058582707E+02  9.144795190E+02  1.249972437E+02  0.00000E+00  9.000E+00
       5     1     1     2   501     0 -8.521772629E-01 -6.547447985E-01  5.963485397E+02  5.963684249E+02  4.750000000E+00  0.00000E+00  9.000E+00
      -5     1     1     2     0   503 -4.493188854E+00  9.111177603E-01  3.121306259E+01  3.190355244E+01  4.750000000E+00  0.00000E+00  9.000E+00
      21     1     1     2   503   512 -2.921396375E+00 -1.222712864E+00 -1.841050272E+01  1.868090453E+01  7.539457465E-07  0.00000E+00  9.000E+00
#rwgt            1           9  0.17611862182067092                3      296310           0
</event>
<event>
      6   9999  3.45752E-01  2.19835E+01 -1.00000E+00  1.57138E-01
      21    -1     0     0   501   502  0.000000000E+00  0.000000000E+00  2.052197618E+01  2.052197618E+01  0.000000000E+00  0.00000E+00  9.000E+00
      21    -1     0     0   511   503  0.000000000E+00  0.000000000E+00 -1.540489582E+03  1.540489582E+03  0.000000000E+00  0.00000E+00  9.000E+00
      25     1     1     2     0     0  2.223572696E+01  7.694639910E+00 -2.726793466E+02  3.008783778E+02  1.249805470E+02  0.00000E+00  9.000E+00
       5     1     1     2   501     0  1.658422676E+00  1.165800871E+00  4.805160554E+00  7.054184956E+00  4.750000000E+00  0.00000E+00  9.000E+00
      -5     1     1     2     0   503 -2.409406736E+00 -1.351648220E+01 -9.771902607E+02  9.772982496E+02  4.750000000E+00  0.00000E+00  9.000E+00
      21     1     1     2   511   502 -2.148474290E+01  4.656041422E+00 -2.749031590E+02  2.757807458E+02  5.394796609E-06  0.00000E+00  9.000E+00
#rwgt            1           9  0.30060128557271354                3      301960           0
</event>
<event>
      6   9999  3.45752E-01  1.99494E+01 -1.00000E+00  1.60294E-01
      21    -1     0     0   512   502  0.000000000E+00  0.000000000E+00  2.404970000E+01  2.404970000E+01  0.000000000E+00  0.00000E+00  9.000E+00
      21    -1     0     0   502   503  0.000000000E+00  0.000000000E+00 -1.035570785E+03  1.035570785E+03  0.000000000E+00  0.00000E+00  9.000E+00
      25     1     1     2     0     0 -7.762237173E+01  1.403202140E+01 -2.829645489E+02  3.192433983E+02  1.250011249E+02  0.00000E+00  9.000E+00
       5     1     1     2   501     0  3.971952323E+01 -4.216552726E+01 -3.921567000E+02  3.964404269E+02  4.750000000E+00  0.00000E+00  9.000E+00
      -5     1     1     2     0   503  2.572304266E+01  1.233379398E+01 -3.072848515E+02  3.086427382E+02  4.750000000E+00  0.00000E+00  9.000E+00
      21     1     1     2   512   501  1.217980585E+01  1.579971189E+01 -2.911498434E+01  3.529392128E+01  4.768371582E-07  0.00000E+00  9.000E+00
#rwgt            1           9   2.2135112247338271E-003           3      303847           0
</event>
<event>
      6   9999  3.45752E-01  8.28825E+00 -1.00000E+00  1.96213E-01
      21    -1     0     0   501   502  0.000000000E+00  0.000000000E+00  2.144847181E+02  2.144847181E+02  0.000000000E+00  0.00000E+00  9.000E+00
      21    -1     0     0   502   511  0.000000000E+00  0.000000000E+00 -3.128375015E+02  3.128375015E+02  0.000000000E+00  0.00000E+00  9.000E+00
      25     1     1     2     0     0  7.410729737E+00 -9.723219775E+00  1.934769603E+02  2.306676520E+02  1.249990864E+02  0.00000E+00  9.000E+00
       5     1     1     2   501     0  8.714059556E-01  1.205236757E+00 -4.267694515E+00  6.556497575E+00  4.750000000E+00  0.00000E+00  9.000E+00
      -5     1     1     2     0   503 -3.526073305E+00  1.730131376E+00 -6.662347564E+00  9.076118256E+00  4.750000000E+00  0.00000E+00  9.000E+00
      21     1     1     2   503   511 -4.756062387E+00  6.787851641E+00 -2.808997016E+02  2.810219519E+02  0.000000000E+00  0.00000E+00  9.000E+00
#rwgt            1           9   9.8824475100701061                3      305598           0
</event>
<event>
      6   9999  3.45752E-01  2.14862E+00 -1.00000E+00  3.21290E-01
       2    -1     0     0   501     0  0.000000000E+00  0.000000000E+00  3.602641754E+02  3.602641754E+02  0.000000000E+00  0.00000E+00  9.000E+00
      21    -1     0     0   502   503  0.000000000E+00  0.000000000E+00 -8.444456445E+02  8.444456445E+02  0.000000000E+00  0.00000E+00  9.000E+00
      25     1     1     2     0     0  3.630926404E+00  2.232484442E+01 -7.297395584E+02  7.407137339E+02  1.250017211E+02  0.00000E+00  9.000E+00
       5     1     1     2   501     0 -7.861185847E-01  8.047929509E-01  3.613666804E+00  6.073447283E+00  4.750000000E+00  0.00000E+00  9.000E+00
      -5     1     1     2     0   503 -8.259610114E-01 -2.386505394E+01 -1.066134277E+02  1.093581661E+02  4.750000000E+00  0.00000E+00  9.000E+00
       2     1     1     2   502     0 -2.018846808E+00  7.354165670E-01  3.485578502E+02  3.485644725E+02  5.394796609E-06  0.00000E+00  9.000E+00
#rwgt            1           9   2.9249727343795195E-003           3      308677           0
</event>
<event>
      6   9999  3.45752E-01  1.13470E+01 -1.00000E+00  1.81592E-01
      21    -1     0     0   501   502  0.000000000E+00  0.000000000E+00  1.322351855E+01  1.322351855E+01  0.000000000E+00  0.00000E+00  9.000E+00
      21    -1     0     0   502   511  0.000000000E+00  0.000000000E+00 -1.178701555E+03  1.178701555E+03  0.000000000E+00  0.00000E+00  9.000E+00
      25     1     1     2     0     0  6.275453257E+00  1.067017259E+01 -7.999973632E+02  8.098002182E+02  1.250095129E+02  0.00000E+00  9.000E+00
       5     1     1     2   501     0 -1.873824283E+00  4.656068051E-01  7.314042173E+00  8.932285265E+00  4.750000000E+00  0.00000E+00  9.000E+00
      -5     1     1     2     0   503 -1.849300356E+00 -7.950888335E-02 -7.003657489E+01  7.022186665E+01  4.750000000E+00  0.00000E+00  9.000E+00
      21     1     1     2   503   511 -2.552328618E+00 -1.105627051E+01 -3.027581402E+02  3.029707031E+02  8.529922400E-06  0.00000E+00  9.000E+00
#rwgt            1           9  0.41161884980771796                3      316134           0
</event>
<event>
      6   9999  3.45752E-01  3.20832E+01 -1.00000E+00  1.45976E-01
      21    -1     0     0   501   502  0.000000000E+00  0.000000000E+00  1.198861862E+01  1.198861862E+01  0.000000000E+00  0.00000E+00  9.000E+00
       2    -1     0     0   502     0  0.000000000E+00  0.000000000E+00 -3.346071008E+03  3.346071008E+03  0.000000000E+00  0.00000E+00  9.000E+00
      25     1     1     2     0     0  3.873363935E+01  3.801711092E+00 -6.106620763E+02  6.245378464E+02  1.249984094E+02  0.00000E+00  9.000E+00
       5     1     1     2   501     0  7.365318893E-01  5.422522178E+00  2.205221072E-01  7.249645232E+00  4.750000000E+00  0.00000E+00  9.000E+00
      -5     1     1     2     0   503 -2.566704882E+01  1.973786709E+01 -2.195291261E+02  2.219549064E+02  4.750000000E+00  0.00000E+00  9.000E+00
       2     1     1     2   503     0 -1.380312242E+01 -2.896210036E+01 -2.504111709E+03  2.504317228E+03  4.315837288E-05  0.00000E+00  9.000E+00
#rwgt            1           9   1.1348581993190358E-003           3      318883           0
</event>
<event>
      6   9999  3.45752E-01  8.05267E+00 -1.00000E+00  1.97679E-01
      21    -1     0     0   511   502  0.000000000E+00  0.000000000E+00  3.827492837E+02  3.827492837E+02  0.000000000E+00  0.00000E+00  9.000E+00
      21    -1     0     0   502   503  0.000000000E+00  0.000000000E+00 -3.251209641E+01  3.251209641E+01  0.000000000E+00  0.00000E+00  9.000E+00
      25     1     1     2     0     0 -3.775919976E+00  5.559166565E+00  1.025918491E+02  1.618563084E+02  1.250088604E+02  0.00000E+00  9.000E+00
       5     1     1     2   501     0 -5.315559025E+00 -1.831837933E+00  2.064773717E+02  2.066085146E+02  4.750000000E+00  0.00000E+00  9.000E+00
      -5     1     1     2     0   503  1.091815379E+00 -4.649718640E+00  2.322480297E+00  7.125191856E+00  4.750000000E+00  0.00000E+00  9.000E+00
      21     1     1     2   511   501  7.999663622E+00  9.223900082E-01  3.884548619E+01  3.967136522E+01  6.743495762E-07  0.00000E+00  9.000E+00
#rwgt            1           9   3.0485005336117551E-004           3      319622           0
</event>
<event>
      6   9999  3.45752E-01  1.03424E+01 -1.00000E+00  1.85667E-01
      21    -1     0     0   501   502  0.000000000E+00  0.000000000E+00  2.859789954E+01  2.859789954E+01  0.000000000E+00  0.00000E+00  9.000E+00
      21    -1     0     0   512   503  0.000000000E+00  0.000000000E+00 -1.136196079E+03  1.136196079E+03  0.000000000E+00  0.00000E+00  9.000E+00
      25     1     1     2     0     0 -4.002825804E+01 -3.293435280E+01 -1.899908775E+02  2.332537113E+02  1.249953090E+02  0.00000E+00  9.000E+00
       5     1     1     2   501     0 -3.102209264E-01  1.683207098E+00  4.459067240E+00  6.736111921E+00  4.750000000E+00  0.00000E+00  9.000E+00
      -5     1     1     2     0   503  3.101629385E+01  3.573016400E+01 -8.862403828E+02  8.875152020E+02  4.750000000E+00  0.00000E+00  9.000E+00
      21     1     1     2   512   502  9.322185119E+00 -4.479018297E+00 -3.582598588E+01  3.728895285E+01  6.743495762E-07  0.00000E+00  9.000E+00
#rwgt            1           9   2.6277927295056294E-003           3      322810           0
</event>
<event>
      6   9999  3.45752E-01  1.09429E+01 -1.00000E+00  1.83164E-01
      21    -1     0     0   501   502  0.000000000E+00  0.000000000E+00  1.269808053E+01  1.269808053E+01  0.000000000E+00  0.00000E+00  9.000E+00
      21    -1     0     0   511   503  0.000000000E+00  0.000000000E+00 -1.322989505E+03  1.322989505E+03  0.000000000E+00  0.00000E+00  9.000E+00
      25     1     1     2     0     0  2.537721282E+01 -2.757435176E+01 -5.484688833E+02  5.637809948E+02  1.250061853E+02  0.00000E+00  9.000E+00
       5     1     1     2   501     0 -1.158392940E+00  1.103120936E+00  2.139468412E+00  5.449639904E+00  4.750000000E+00  0.00000E+00  9.000E+00
      -5     1     1     2     0   503 -3.513795758E+01  2.575009398E+01 -4.118140478E+02  4.141390055E+02  4.750000000E+00  0.00000E+00  9.000E+00
      21     1     1     2   511   502  1.091913769E+01  7.211368511E-01 -3.521479616E+02  3.523179451E+02  0.000000000E+00  0.00000E+00  9.000E+00
#rwgt            1           9  0.11241063707071987                3      325939           0
</event>
<event>
      6   9999  3.45752E-01  4.92319E+01 -1.00000E+00  1.35148E-01
      21    -1     0     0   502   512  0.000000000E+00  0.000000000E+00  3.791717159E+01  3.791717159E+01  0.000000000E+00  0.00000E+00  9.000E+00
      21    -1     0     0   501   502  0.000000000E+00  0.000000000E+00 -3.220788726E+02  3.220788726E+02  0.000000000E+00  0.00000E+00  9.000E+00
      25     1     1     2     0     0 -4.301522488E+01  3.059062333E+01 -1.512499890E+02  2.031932423E+02  1.249993549E+02  0.00000E+00  9.000E+00
       5     1     1     2   501     0  4.013310520E+00  7.362710018E-01 -2.223666586E+01  2.310152732E+01  4.750000000E+00  0.00000E+00  9.000E+00
      -5     1     1     2     0   503  1.904121466E+01  1.367700593E+01 -5.106041513E+01  5.638578579E+01  4.750000000E+00  0.00000E+00  9.000E+00
      21     1     1     2   503   512  1.996069970E+01 -4.500390026E+01 -5.961463099E+01  7.731548874E+01  0.000000000E+00  0.00000E+00  9.000E+00
#rwgt            1           9   446.53710666077330                3      328289           0
</event>
<event>
      6   9999  3.45752E-01  6.43150E+01 -1.00000E+00  1.29186E-01
      21    -1     0     0   511   503  0.000000000E+00  0.000000000E+00  1.779938515E+01  1.779938515E+01  0.000000000E+00  0.00000E+00  9.000E+00
      21    -1     0     0   501   502  0.000000000E+00  0.000000000E+00 -1.029329546E+03  1.029329546E+03  0.000000000E+00  0.00000E+00  9.000E+00
      25     1     1     2     0     0  4.762142157E+00 -3.844525884E+01 -4.947660291E+02  5.117809524E+02  1.250024151E+02  0.00000E+00  9.000E+00
       5     1     1     2   501     0  1.477039218E+01 -8.548402459E+00 -6.328527771E+01  6.571779474E+01  4.750000000E+00  0.00000E+00  9.000E+00
      -5     1     1     2     0   503  4.297387302E+01  3.184864755E+01 -2.677216937E+02  2.730541300E+02  4.750000000E+00  0.00000E+00  9.000E+00
      21     1     1     2   511   502 -6.250640735E+01  1.514501375E+01 -1.857571604E+02  1.965760541E+02  4.672030912E-06  0.00000E+00  9.000E+00
#rwgt            1           9   2.4962221273349201E-003           3      329389           0
</event>
<event>
      6   9999  3.45752E-01  1.59773E+02 -1.00000E+00  1.12378E-01
      -1    -1     0     0     0   502  0.000000000E+00  0.000000000E+00  1.711847850E+03  1.711847850E+03  0.000000000E+00  0.00000E+00  9.000E+00
      21    -1     0     0   501   512  0.000000000E+00  0.000000000E+00 -1.595363149E+03  1.595363149E+03  0.000000000E+00  0.00000E+00  9.000E+00
      25     1     1     2     0     0 -4.064627551E+01 -4.803476840E+01 -1.289698576E+03  1.297268536E+03  1.249951201E+02  0.00000E+00  9.000E+00
       5     1     1     2   501     0 -2.698007746E+01 -6.956477480E+01 -2.318476094E+01  7.827693219E+01  4.750000000E+00  0.00000E+00  9.000E+00
      -5     1     1     2     0   502 -1.121453010E+01 -2.136652050E+01 -2.467384683E+02  2.479611424E+02  4.750000000E+00  0.00000E+00  9.000E+00
      -1     1     1     2     0   512  7.884088307E+01  1.389660637E+02  1.676106505E+03  1.683704389E+03  2.157918644E-05  0.00000E+00  9.000E+00
#rwgt            1           1   1.6947529422995829E-002           3      330324           0
</event>
<event>
      6   9999  3.45752E-01  2.88425E+01 -1.00000E+00  1.48952E-01
      21    -1     0     0   502   511  0.000000000E+00  0.000000000E+00  1.267772646E+01  1.267772646E+01  0.000000000E+00  0.00000E+00  9.000E+00
      21    -1     0     0   501   502  0.000000000E+00  0.000000000E+00 -1.087134283E+03  1.087134283E+03  0.000000000E+00  0.00000E+00  9.000E+00
      25     1     1     2     0     0  1.659381683E+01 -2.893574631E+01 -9.612126780E+02  9.699088426E+02  1.252226752E+02  0.00000E+00  9.000E+00
       5     1     1     2   501     0 -1.282295529E-01 -1.383248644E+00 -1.091456849E+01  1.198416142E+01  4.750000000E+00  0.00000E+00  9.000E+00
      -5     1     1     2     0   503 -2.458033318E+01  2.641534745E+00 -7.101910234E+01  7.534882801E+01  4.750000000E+00  0.00000E+00  9.000E+00
      21     1     1     2   503   511  8.114745912E+00  2.767746021E+01 -3.131020789E+01  4.257017762E+01  1.011524364E-06  0.00000E+00  9.000E+00
#rwgt            1           9   4.9233730403382082E-004           3      331013           0
</event>
<event>
      6   9999 -3.45752E-01  1.66469E+01 -1.00000E+00  1.66542E-01
      21    -1     0     0   501   502  0.000000000E+00  0.000000000E+00  1.883883141E+01  1.883883141E+01  0.000000000E+00  0.00000E+00  9.000E+00
      21    -1     0     0   512   503  0.000000000E+00  0.000000000E+00 -1.089210156E+03  1.089210156E+03  0.000000000E+00  0.00000E+00  9.000E+00
      25     1     1     2     0     0 -5.186167441E+01 -7.007089614E+01 -6.832923245E+02  7.000807439E+02  1.250003337E+02  0.00000E+00  9.000E+00
       5     1     1     2   501     0  1.024256760E+01  7.558332943E+00 -1.957474498E+01  2.382796107E+01  4.750000000E+00  0.00000E+00  9.000E+00
      -5     1     1     2     0   503  3.777036537E+01  7.870848079E+01 -2.376372380E+02  2.532106728E+02  4.750000000E+00  0.00000E+00  9.000E+00
      21     1     1     2   512   502  3.848741443E+00 -1.619591759E+01 -1.298670172E+02  1.309296097E+02  1.907348633E-06  0.00000E+00  9.000E+00
#rwgt            1           9  -3.6938912369249450E-005           3      332039           0
</event>
<event>
      6   9999  3.45752E-01  2.31056E+01 -1.00000E+00  1.55568E-01
      21    -1     0     0   501   511  0.000000000E+00  0.000000000E+00  8.893453448E+02  8.893453448E+02  0.000000000E+00  0.00000E+00  9.000E+00
      21    -1     0     0   502   503  0.000000000E+00  0.000000000E+00 -5.950498509E+01  5.950498509E+01  0.000000000E+00  0.00000E+00  9.000E+00
      25     1     1     2     0     0 -2.051892737E+01  1.237335967E+02  1.840036681E+02  2.553691979E+02  1.250001921E+02  0.00000E+00  9.000E+00
       5     1     1     2   501     0  4.359316701E-01  1.855755608E-01  3.244620963E+02  3.244972094E+02  4.750000000E+00  0.00000E+00  9.000E+00
      -5     1     1     2     0   503  4.046363756E+01 -1.130335575E+02  1.331524709E+02  1.793489172E+02  4.750000000E+00  0.00000E+00  9.000E+00
      21     1     1     2   502   511 -2.038064186E+01 -1.088561480E+01  1.882221243E+02  1.896350054E+02  2.697398305E-06  0.00000E+00  9.000E+00
#rwgt            1           9   5.4762835527051492E-004           3      334490           0
</event>
<event>
      6   9999 -3.45752E-01  1.12178E+01 -1.00000E+00  1.82086E-01
      21    -1     0     0   501   502  0.000000000E+00  0.000000000E+00  1.621860540E+02  1.621860540E+02  0.000000000E+00  0.00000E+00  9.000E+00
      21    -1     0     0   502   512  0.000000000E+00  0.000000000E+00 -4.040788072E+02  4.040788072E+02  0.000000000E+00  0.00000E+00  9.000E+00
      25     1     1     2     0     0  1.017051725E+01 -5.466438722E+01  7.756872512E+01  1.572662902E+02  1.249965770E+02  0.00000E+00  9.000E+00
       5     1     1     2   501     0 -1.845306512E-01  1.119826442E-01  1.607496620E+01  1.676346116E+01  4.750000000E+00  0.00000E+00  9.000E+00
      -5     1     1     2     0   503 -2.011520557E+01  4.973182847E+01  2.594457724E+00  5.391817847E+01  4.750000000E+00  0.00000E+00  9.000E+00
      21     1     1     2   503   512  1.012921897E+01  4.820576103E+00 -3.381309022E+02  3.383169314E+02  5.394796609E-06  0.00000E+00  9.000E+00
#rwgt            1           9 -0.53963414956893274                3      336569           0
</event>
<event>
      6   9999  3.45752E-01  3.24638E+01 -1.00000E+00  1.45654E-01
      21    -1     0     0   501   511  0.000000000E+00  0.000000000E+00  2.655794901E+01  2.655794901E+01  0.000000000E+00  0.00000E+00  9.000E+00
      21    -1     0     0   502   503  0.000000000E+00  0.000000000E+00 -1.027390518E+03  1.027390518E+03  0.000000000E+00  0.00000E+00  9.000E+00
      25     1     1     2     0     0  4.650562626E+01  6.132183862E+01 -5.418310166E+02  5.613638289E+02  1.250014266E+02  0.00000E+00  9.000E+00
       5     1     1     2   501     0 -4.717400789E+01 -8.621986025E+01 -1.918793069E+02  2.156373860E+02  4.750000000E+00  0.00000E+00  9.000E+00
      -5     1     1     2     0   503 -3.091337407E+01  1.738181636E+01 -1.888472134E+02  1.922071714E+02  4.750000000E+00  0.00000E+00  9.000E+00
      21     1     1     2   502   511  3.158175569E+01  7.516205277E+00 -7.827503249E+01  8.474008110E+01  1.651812370E-06  0.00000E+00  9.000E+00
#rwgt            1           9   6.4821763797333345                3      338825           0
</event>
<event>
      6   9999 -3.45752E-01  4.68947E+00 -1.00000E+00  2.34372E-01
      21    -1     0     0   512   502  0.000000000E+00  0.000000000E+00  1.314222126E+01  1.314222126E+01  0.000000000E+00  0.00000E+00  9.000E+00
      21    -1     0     0   502   503  0.000000000E+00  0.000000000E+00 -7.435270962E+02  7.435270962E+02  0.000000000E+00  0.00000E+00  9.000E+00
      25     1     1     2     0     0 -1.203607770E+01  9.674062494E-01 -6.610392839E+02  6.728629200E+02  1.250030845E+02  0.00000E+00  9.000E+00
       5     1     1     2   501     0 -7.669613097E-01  1.074051691E+00 -1.229891271E+00  5.081038203E+00  4.750000000E+00  0.00000E+00  9.000E+00
      -5     1     1     2     0   503  1.153557750E+01  2.473482528E+00 -7.170234135E+01  7.282153472E+01  4.750000000E+00  0.00000E+00  9.000E+00
      21     1     1     2   512   501  1.267461512E+00 -4.514940469E+00  3.586641629E+00  5.903824548E+00  3.125693942E-07  0.00000E+00  9.000E+00
#rwgt            1           9  -7.1066603496432504E-004           3      340579           0
</event>
<event>
      6   9999  3.45752E-01  3.56612E+00 -1.00000E+00  2.58644E-01
      21    -1     0     0   511   502  0.000000000E+00  0.000000000E+00  3.317352950E+01  3.317352950E+01  0.000000000E+00  0.00000E+00  9.000E+00
      21    -1     0     0   502   503  0.000000000E+00  0.000000000E+00 -1.118311577E+03  1.118311577E+03  0.000000000E+00  0.00000E+00  9.000E+00
      25     1     1     2     0     0  4.867647091E+00 -4.181154814E+00 -8.560112962E+02  8.651124232E+02  1.249919576E+02  0.00000E+00  9.000E+00
       5     1     1     2   501     0  4.318352407E+00 -4.673785711E+00  2.389020465E+01  2.517532162E+01  4.750000000E+00  0.00000E+00  9.000E+00
      -5     1     1     2     0   503 -1.081058466E+01  1.202951843E+01 -2.559961713E+02  2.565505413E+02  4.750000000E+00  0.00000E+00  9.000E+00
      21     1     1     2   511   501  1.624585162E+00 -3.174577901E+00  2.979214910E+00  4.646820771E+00  1.788139343E-07  0.00000E+00  9.000E+00
#rwgt            1           9   1.1056871974766817E-004           3      344658           0
</event>
<event>
      6   9999  3.45752E-01  5.89478E+01 -1.00000E+00  1.31070E-01
      21    -1     0     0   512   503  0.000000000E+00  0.000000000E+00  4.585679967E+01  4.585679967E+01  0.000000000E+00  0.00000E+00  9.000E+00
      21    -1     0     0   501   502  0.000000000E+00  0.000000000E+00 -1.264294427E+03  1.264294427E+03  0.000000000E+00  0.00000E+00  9.000E+00
      25     1     1     2     0     0  8.695653046E+01 -8.416015337E+01 -2.176167355E+02  2.786159569E+02  1.250017531E+02  0.00000E+00  9.000E+00
       5     1     1     2   501     0 -3.454433360E-01  3.074289444E+01 -4.888475612E+02  4.898364477E+02  4.750000000E+00  0.00000E+00  9.000E+00
      -5     1     1     2     0   503 -7.942826328E+01 -5.091245300E+00 -4.466477439E+02  4.537086503E+02  4.750000000E+00  0.00000E+00  9.000E+00
      21     1     1     2   512   502 -7.182823838E+00  5.850850422E+01 -6.532558657E+01  8.799017153E+01  0.000000000E+00  0.00000E+00  9.000E+00
#rwgt            1           9   2.6508248839547142E-002           3      351385           0
</event>
<event>
      6   9999  3.45752E-01  6.98169E+00 -1.00000E+00  2.05284E-01
      21    -1     0     0   501   502  0.000000000E+00  0.000000000E+00  8.659238957E+02  8.659238957E+02  0.000000000E+00  0.00000E+00  9.000E+00
      21    -1     0     0   511   503  0.000000000E+00  0.000000000E+00 -8.731930398E+00  8.731930398E+00  0.000000000E+00  0.00000E+00  9.000E+00
      25     1     1     2     0     0 -6.085177203E+00  9.282381768E+00  5.609474738E+02  5.748129197E+02  1.249985292E+02  0.00000E+00  9.000E+00
       5     1     1     2   501     0  3.222312391E-02  1.402128194E+00  1.923899814E+02  1.924537202E+02  4.750000000E+00  0.00000E+00  9.000E+00
      -5     1     1     2     0   503  4.545998012E+00 -3.867398415E+00  9.794693572E+01  9.824351167E+01  4.750000000E+00  0.00000E+00  9.000E+00
      21     1     1     2   511   502  1.506956067E+00 -6.817111547E+00  5.907574402E+00  9.145674483E+00  2.528810911E-07  0.00000E+00  9.000E+00
#rwgt            1           9   1.0248559693476811E-004           3      352257           0
</event>
<event>
      6   9999  3.45752E-01  4.98362E+01 -1.00000E+00  1.34864E-01
      21    -1     0     0   512   502  0.000000000E+00  0.000000000E+00  7.018724390E+01  7.018724390E+01  0.000000000E+00  0.00000E+00  9.000E+00
      21    -1     0     0   502   503  0.000000000E+00  0.000000000E+00 -1.576431625E+03  1.576431625E+03  0.000000000E+00  0.00000E+00  9.000E+00
      25     1     1     2     0     0 -3.039756938E+01  2.544352445E+01 -1.019211376E+03  1.027613108E+03  1.250019486E+02  0.00000E+00  9.000E+00
       5     1     1     2   501     0 -3.476318202E+01 -1.117063515E+01  5.305357929E+01  6.457946027E+01  4.750000000E+00  0.00000E+00  9.000E+00
      -5     1     1     2     0   503  2.097692695E+01 -3.732575922E+01 -4.449173946E+02  4.469980920E+02  4.750000000E+00  0.00000E+00  9.000E+00
      21     1     1     2   512   501  4.418382446E+01  2.305286992E+01 -9.516918989E+01  1.074282079E+02  1.348699152E-06  0.00000E+00  9.000E+00
#rwgt            1           9   4.6611120471576329E-004           3      355336           0
</event>
<event>
      6   9999  3.45752E-01  5.88099E+00 -1.00000E+00  2.15277E-01
      21    -1     0     0   501   502  0.000000000E+00  0.000000000E+00  1.900984353E+01  1.900984353E+01  0.000000000E+00  0.00000E+00  9.000E+00
      21    -1     0     0   511   503  0.000000000E+00  0.000000000E+00 -5.131469291E+02  5.131469291E+02  0.000000000E+00  0.00000E+00  9.000E+00
      25     1     1     2     0     0  1.128746146E+01 -1.221208947E+01 -4.630054969E+02  4.798698045E+02  1.249975886E+02  0.00000E+00  9.000E+00
       5     1     1     2   501     0 -9.371920684E-01  9.054129141E-01  5.969427712E+00  7.739164601E+00  4.750000000E+00  0.00000E+00  9.000E+00
      -5     1     1     2     0   503 -1.380349920E+01  6.546292102E+00 -1.593696032E+01  2.258184525E+01  4.750000000E+00  0.00000E+00  9.000E+00
      21     1     1     2   511   502  3.453229806E+00  4.760384450E+00 -2.116405607E+01  2.196595833E+01  0.000000000E+00  0.00000E+00  9.000E+00
#rwgt            1           9   3.4343550728776376E-003           3      356778           0
</event>
<event>
      6   9999  3.45752E-01  5.99814E+00 -1.00000E+00  2.14077E-01
      21    -1     0     0   512   502  0.000000000E+00  0.000000000E+00  8.732456665E+01  8.732456665E+01  0.000000000E+00  0.00000E+00  9.000E+00
      21    -1     0     0   502   503  0.000000000E+00  0.000000000E+00 -2.877088902E+02  2.877088902E+02  0.000000000E+00  0.00000E+00  9.000E+00
      25     1     1     2     0     0 -2.316235915E+00  8.757910747E+00 -2.185279544E+02  2.519152250E+02  1.249989912E+02  0.00000E+00  9.000E+00
       5     1     1     2   501     0 -1.048020078E-01  5.519386717E-02 -4.648587850E+00  6.647247462E+00  4.750000000E+00  0.00000E+00  9.000E+00
      -5     1     1     2     0   503 -8.640301132E-01 -3.794536084E+00 -4.650801775E+01  4.691165385E+01  4.750000000E+00  0.00000E+00  9.000E+00
      21     1     1     2   512   501  3.285068036E+00 -5.018568530E+00  6.930023641E+01  6.955933056E+01  1.348699152E-06  0.00000E+00  9.000E+00
#rwgt            1           9   1.7776031459839502E-003           3      360171           0
</event>
<event>
      6   9999  3.45752E-01  1.44318E+02 -1.00000E+00  1.14032E-01
      21    -1     0     0   501   502  0.000000000E+00  0.000000000E+00  4.890418987E+01  4.890418987E+01  0.000000000E+00  0.00000E+00  9.000E+00
      21    -1     0     0   511   503  0.000000000E+00  0.000000000E+00 -2.535647844E+03  2.535647844E+03  0.000000000E+00  0.00000E+00  9.000E+00
      25     1     1     2     0     0 -1.988472023E+01 -2.373798457E+02 -1.431350580E+03  1.456406242E+03  1.249402480E+02  0.00000E+00  9.000E+00
       5     1     1     2   501     0 -3.531965093E+01  7.152376538E+01 -8.532615233E+01  1.169027011E+02  4.750000000E+00  0.00000E+00  9.000E+00
      -5     1     1     2     0   503  5.783383434E+01  2.156220133E+01 -4.903384147E+01  7.897190025E+01  4.750000000E+00  0.00000E+00  9.000E+00
      21     1     1     2   511   502 -2.629463171E+00  1.442938790E+02 -9.210330802E+02  9.322711904E+02  1.078959322E-05  0.00000E+00  9.000E+00
#rwgt            1           9   1.8423567412265664E-002           3      363134           0
</event>
<event>
      6   9999  3.45752E-01  2.10339E+01 -1.00000E+00  1.58557E-01
      21    -1     0     0   501   512  0.000000000E+00  0.000000000E+00  2.499756319E+01  2.499756319E+01  0.000000000E+00  0.00000E+00  9.000E+00
      21    -1     0     0   502   503  0.000000000E+00  0.000000000E+00 -2.411613595E+03  2.411613595E+03  0.000000000E+00  0.00000E+00  9.000E+00
      25     1     1     2     0     0  6.392295172E+00  2.160037697E+01 -2.264897661E+03  2.268456387E+03  1.250021007E+02  0.00000E+00  9.000E+00
       5     1     1     2   501     0 -5.357200954E+00 -1.900163607E+00  2.034626788E+01  2.165279060E+01  4.750000000E+00  0.00000E+00  9.000E+00
      -5     1     1     2     0   503 -8.250021621E+00  5.758663973E-02 -8.761775132E+01  8.813341602E+01  4.750000000E+00  0.00000E+00  9.000E+00
      21     1     1     2   502   512  7.214927404E+00 -1.975780000E+01 -5.444688742E+01  5.836856507E+01  1.168007728E-06  0.00000E+00  9.000E+00
#rwgt            1           9   7.7857026752407073E-003           3      364125           0
</event>
<event>
      6   9999  3.45752E-01  1.17187E+01 -1.00000E+00  1.80219E-01
      21    -1     0     0   501   511  0.000000000E+00  0.000000000E+00  7.187006152E+02  7.187006152E+02  0.000000000E+00  0.00000E+00  9.000E+00
      21    -1     0     0   502   503  0.000000000E+00  0.000000000E+00 -7.666376671E+01  7.666376671E+01  0.000000000E+00  0.00000E+00  9.000E+00
      25     1     1     2     0     0 -7.170355297E+00  3.729746027E+01 -9.753222504E+00  1.310042345E+02  1.249978783E+02  0.00000E+00  9.000E+00
       5     1     1     2   501     0  1.298958117E+01 -5.173960926E-01  5.221447133E+02  5.223281162E+02  4.750000000E+00  0.00000E+00  9.000E+00
      -5     1     1     2     0   503  4.406279440E+00 -4.250427028E+01  7.791222352E+01  8.898823161E+01  4.750000000E+00  0.00000E+00  9.000E+00
      21     1     1     2   502   511 -1.022550531E+01  5.724206110E+00  5.173313421E+01  5.304379954E+01  0.000000000E+00  0.00000E+00  9.000E+00
#rwgt            1           9   1.8756345535759569E-002           3      366302           0
</event>
<event>
      6   9999  3.45752E-01  2.51440E+00 -1.00000E+00  2.98638E-01
      21    -1     0     0   501   512  0.000000000E+00  0.000000000E+00  1.348987416E+01  1.348987416E+01  0.000000000E+00  0.00000E+00  9.000E+00
      21    -1     0     0   502   503  0.000000000E+00  0.000000000E+00 -8.736637791E+02  8.736637791E+02  0.000000000E+00  0.00000E+00  9.000E+00
      25     1     1     2     0     0 -8.697128527E-01  1.773114097E+00 -5.720207945E+02  5.855226528E+02  1.250003487E+02  0.00000E+00  9.000E+00
       5     1     1     2   501     0  5.848915440E-01 -5.652809798E-01  5.649915985E+00  7.426014499E+00  4.750000000E+00  0.00000E+00  9.000E+00
      -5     1     1     2     0   503  9.637544464E-01 -3.628839411E+00 -2.846072936E+02  2.846716905E+02  4.750000000E+00  0.00000E+00  9.000E+00
      21     1     1     2   502   512 -6.789331377E-01  2.421006294E+00 -9.195732862E+00  9.533295577E+00  1.685873940E-07  0.00000E+00  9.000E+00
#rwgt            1           9   1.1302920793038107                3      369730           0
</event>
<event>
      6   9999  3.45752E-01  9.21769E+00 -1.00000E+00  1.90999E-01
      21    -1     0     0   501   511  0.000000000E+00  0.000000000E+00  1.850212242E+01  1.850212242E+01  0.000000000E+00  0.00000E+00  9.000E+00
      21    -1     0     0   502   503  0.000000000E+00  0.000000000E+00 -7.689912071E+02  7.689912071E+02  0.000000000E+00  0.00000E+00  9.000E+00
      25     1     1     2     0     0 -2.212799703E+00 -7.615201360E+00 -7.313070375E+02  7.419549084E+02  1.249968609E+02  0.00000E+00  9.000E+00
       5     1     1     2   501     0  1.831463543E+00 -1.446311557E-01  4.818669411E-01  5.115649776E+00  4.750000000E+00  0.00000E+00  9.000E+00
      -5     1     1     2     0   503  8.998397720E+00  1.103277296E+01 -2.544545923E+01  2.954195553E+01  4.750000000E+00  0.00000E+00  9.000E+00
      21     1     1     2   502   511 -8.617061560E+00 -3.272940442E+00  5.781545105E+00  1.088081582E+01  4.768371582E-07  0.00000E+00  9.000E+00
#rwgt            1           9   1.6372814729085210E-004           3      376849           0
</event>
<event>
      6   9999  3.45752E-01  6.47547E+00 -1.00000E+00  2.09546E-01
      21    -1     0     0   501   502  0.000000000E+00  0.000000000E+00  2.131333525E+01  2.131333525E+01  0.000000000E+00  0.00000E+00  9.000E+00
      21    -1     0     0   502   512  0.000000000E+00  0.000000000E+00 -1.186581882E+03  1.186581882E+03  0.000000000E+00  0.00000E+00  9.000E+00
      25     1     1     2     0     0 -5.677627546E+00 -1.292090450E+01 -7.578431937E+02  7.682114742E+02  1.249935106E+02  0.00000E+00  9.000E+00
       5     1     1     2   501     0  6.076825656E+00 -6.428072756E-01  1.505586661E+01  1.692875160E+01  4.750000000E+00  0.00000E+00  9.000E+00
      -5     1     1     2     0   503  1.060146670E+00  7.254823537E+00 -2.440603802E+02  2.442166826E+02  4.750000000E+00  0.00000E+00  9.000E+00
      21     1     1     2   503   512 -1.459344781E+00  6.308888242E+00 -1.784208398E+02  1.785383091E+02  3.814697266E-06  0.00000E+00  9.000E+00
#rwgt            1           9   1.8352629493316127E-003           3      379578           0
</event>
<event>
      6   9999  3.45752E-01  5.89706E+00 -1.00000E+00  2.15110E-01
      21    -1     0     0   511   502  0.000000000E+00  0.000000000E+00  3.374794410E+01  3.374794410E+01  0.000000000E+00  0.00000E+00  9.000E+00
      21    -1     0     0   502   503  0.000000000E+00  0.000000000E+00 -4.020849159E+03  4.020849159E+03  0.000000000E+00  0.00000E+00  9.000E+00
      25     1     1     2     0     0 -1.101986345E+00 -1.232880137E+01 -3.738839965E+03  3.740949454E+03  1.250012921E+02  0.00000E+00  9.000E+00
       5     1     1     2   501     0  1.774683374E+01  6.056860581E+00  2.060375550E+01  2.826150931E+01  4.750000000E+00  0.00000E+00  9.000E+00
      -5     1     1     2     0   503 -1.096936191E+01  7.873259710E+00 -2.758633945E+02  2.762344838E+02  4.750000000E+00  0.00000E+00  9.000E+00
      21     1     1     2   511   501 -5.675485481E+00 -1.601318917E+00  6.998388843E+00  9.151655813E+00  8.880892054E-07  0.00000E+00  9.000E+00
#rwgt            1           9   3.4493297711393769E-003           3      384082           0
</event>
<event>
      6   9999  3.45752E-01  1.22342E+01 -1.00000E+00  1.78417E-01
      21    -1     0     0   501   502  0.000000000E+00  0.000000000E+00  7.620307483E+01  7.620307483E+01  0.000000000E+00  0.00000E+00  9.000E+00
      21    -1     0     0   502   512  0.000000000E+00  0.000000000E+00 -1.222587111E+02  1.222587111E+02  0.000000000E+00  0.00000E+00  9.000E+00
      25     1     1     2     0     0 -1.903486195E+01  1.164319239E+01 -5.045993154E+01  1.366167856E+02  1.249802045E+02  0.00000E+00  9.000E+00
       5     1     1     2   501     0  1.893461841E-01 -5.515793069E-01  8.952198228E+00  1.015108097E+01  4.750000000E+00  0.00000E+00  9.000E+00
      -5     1     1     2     0   503  1.399191433E+01 -2.232186037E+01  1.342897683E+01  2.994894048E+01  4.750000000E+00  0.00000E+00  9.000E+00
      21     1     1     2   503   512  4.853601436E+00  1.123024729E+01 -1.797687974E+01  2.174497888E+01  2.384185791E-07  0.00000E+00  9.000E+00
#rwgt            1           9   7.3800999941092179E-003           3      391280           0
</event>
<event>
      6   9999 -3.45752E-01  7.26195E+00 -1.00000E+00  2.03126E-01
      21    -1     0     0   501   502  0.000000000E+00  0.000000000E+00  1.190614137E+01  1.190614137E+01  0.000000000E+00  0.00000E+00  9.000E+00
      21    -1     0     0   502   511  0.000000000E+00  0.000000000E+00 -2.195878456E+03  2.195878456E+03  0.000000000E+00  0.00000E+00  9.000E+00
      25     1     1     2     0     0  4.635538471E+00 -6.869977694E+00 -1.776083581E+03  1.780496153E+03  1.249999151E+02  0.00000E+00  9.000E+00
       5     1     1     2   501     0 -4.826974927E+00  3.866745416E+00  7.885961624E+00  1.109064010E+01  4.750000000E+00  0.00000E+00  9.000E+00
      -5     1     1     2     0   503 -5.619596503E+00 -1.351980003E+00 -8.110165557E+01  8.144598671E+01  4.750000000E+00  0.00000E+00  9.000E+00
      21     1     1     2   503   511  5.811032958E+00  4.355212281E+00 -3.346730391E+02  3.347518172E+02  3.814697266E-06  0.00000E+00  9.000E+00
#rwgt            1           9  -1.2139505763293132E-005           3      393377           0
</event>
<event>
      6   9999  3.45752E-01  1.21082E+01 -1.00000E+00  1.78847E-01
      21    -1     0     0   501   502  0.000000000E+00  0.000000000E+00  1.121138313E+03  1.121138313E+03  0.000000000E+00  0.00000E+00  9.000E+00
      21    -1     0     0   502   512  0.000000000E+00  0.000000000E+00 -1.603783838E+02  1.603783838E+02  0.000000000E+00  0.00000E+00  9.000E+00
      25     1     1     2     0     0 -5.221131408E+01 -3.855375244E+01  1.844660120E+02  2.320884377E+02  1.249996808E+02  0.00000E+00  9.000E+00
       5     1     1     2   501     0  5.015158833E+01  2.457401582E+01  8.981005237E+02  8.998478634E+02  4.750000000E+00  0.00000E+00  9.000E+00
      -5     1     1     2     0   503 -1.458511298E+00  2.393914471E+00  1.305710890E+01  1.417422571E+01  4.750000000E+00  0.00000E+00  9.000E+00
      21     1     1     2   503   512  3.518237045E+00  1.158582215E+01 -1.348637151E+02  1.354061702E+02  3.303624740E-06  0.00000E+00  9.000E+00
#rwgt            1           9   6.1785428895141860E-004           3      397589           0
</event>
<event>
      6   9999  3.45752E-01  1.97911E+01 -1.00000E+00  1.60559E-01
      21    -1     0     0   511   502  0.000000000E+00  0.000000000E+00  7.206223449E+01  7.206223449E+01  0.000000000E+00  0.00000E+00  9.000E+00
      21    -1     0     0   502   503  0.000000000E+00  0.000000000E+00 -2.837813475E+03  2.837813475E+03  0.000000000E+00  0.00000E+00  9.000E+00
      25     1     1     2     0     0  1.392787284E+01 -2.561167934E+00 -2.711095660E+03  2.714011392E+03  1.249704344E+02  0.00000E+00  9.000E+00
       5     1     1     2   501     0  4.523156349E+00 -8.836039415E-01 -1.418879728E+01  1.565644172E+01  4.750000000E+00  0.00000E+00  9.000E+00
      -5     1     1     2     0   503  8.670503779E-01 -8.564026404E-01 -1.088795551E+02  1.089899317E+02  4.750000000E+00  0.00000E+00  9.000E+00
      21     1     1     2   511   501 -1.931807957E+01  4.301174516E+00  6.841277182E+01  7.121794471E+01  3.162979880E-06  0.00000E+00  9.000E+00
#rwgt            1           9   3.1970118662491044E-004           3      400104           0
</event>
<event>
      6   9999 -3.45752E-01  3.52696E+00 -1.00000E+00  2.59735E-01
      21    -1     0     0   512   502  0.000000000E+00  0.000000000E+00  9.227213955E+00  9.227213955E+00  0.000000000E+00  0.00000E+00  9.000E+00
      21    -1     0     0   502   503  0.000000000E+00  0.000000000E+00 -3.053168389E+03  3.053168389E+03  0.000000000E+00  0.00000E+00  9.000E+00
      25     1     1     2     0     0 -6.980101313E+00  2.653018107E+01 -2.880326422E+03  2.883166903E+03  1.249740863E+02  0.00000E+00  9.000E+00
       5     1     1     2   501     0  6.151606929E-01 -5.237724778E-01 -5.438280919E+00  7.265683701E+00  4.750000000E+00  0.00000E+00  9.000E+00
      -5     1     1     2     0   503  2.900121229E+00 -2.666553263E+01 -1.634028922E+02  1.656578674E+02  4.750000000E+00  0.00000E+00  9.000E+00
      21     1     1     2   512   501  3.464819391E+00  6.591240365E-01  5.226420737E+00  6.305148026E+00  1.550866584E-06  0.00000E+00  9.000E+00
#rwgt            1           9  -5.3618087523114062E-005           3      401307           0
</event>
<event>
      6   9999  3.45752E-01  4.80822E+01 -1.00000E+00  1.35703E-01
      21    -1     0     0   511   502  0.000000000E+00  0.000000000E+00  6.040658134E+01  6.040658134E+01  0.000000000E+00  0.00000E+00  9.000E+00
       1    -1     0     0   501     0  0.000000000E+00  0.000000000E+00 -1.029991221E+03  1.029991221E+03  0.000000000E+00  0.00000E+00  9.000E+00
      25     1     1     2     0     0  4.526338446E+01 -4.377378347E+01 -2.026685116E+02  2.463011285E+02  1.249992089E+02  0.00000E+00  9.000E+00
       5     1     1     2   501     0 -1.787096637E+01 -1.610317712E+01 -3.770923582E+02  3.778887308E+02  4.750000000E+00  0.00000E+00  9.000E+00
      -5     1     1     2     0   502  3.325317636E+00  2.288618916E+01 -4.124099247E+02  4.130851533E+02  4.750000000E+00  0.00000E+00  9.000E+00
       1     1     1     2   511     0 -3.071773572E+01  3.699077143E+01  2.258615443E+01  5.312279013E+01  1.261592536E-06  0.00000E+00  9.000E+00
#rwgt            1           1   1.5783633792872145                3      406413           0
</event>
<event>
      6   9999 -3.45752E-01  2.50247E+02 -1.00000E+00  1.05629E-01
      21    -1     0     0   501   512  0.000000000E+00  0.000000000E+00  1.930102260E+02  1.930102260E+02  0.000000000E+00  0.00000E+00  9.000E+00
      21    -1     0     0   502   503  0.000000000E+00  0.000000000E+00 -1.763307029E+03  1.763307029E+03  0.000000000E+00  0.00000E+00  9.000E+00
      25     1     1     2     0     0 -2.256097864E+02 -1.001549251E+02 -8.903096066E+02  9.323177158E+02  1.250373654E+02  0.00000E+00  9.000E+00
       5     1     1     2   501     0  6.461227342E+00  1.508768544E-01 -2.020817345E+01  2.174173398E+01  4.750000000E+00  0.00000E+00  9.000E+00
      -5     1     1     2     0   503  3.535396260E+02 -1.110946406E+02 -6.542737783E+02  7.519501485E+02  4.750000000E+00  0.00000E+00  9.000E+00
      21     1     1     2   502   512 -1.343910669E+02  2.110986889E+02 -5.505244637E+00  2.503076567E+02  7.216347906E-06  0.00000E+00  9.000E+00
#rwgt            1           9  -9.8100020031883541E-005           3      406832           0
</event>
<event>
      6   9999  3.45752E-01  8.48637E+00 -1.00000E+00  1.95028E-01
      21    -1     0     0   501   502  0.000000000E+00  0.000000000E+00  1.626606207E+01  1.626606207E+01  0.000000000E+00  0.00000E+00  9.000E+00
       1    -1     0     0   502     0  0.000000000E+00  0.000000000E+00 -1.365178607E+03  1.365178607E+03  0.000000000E+00  0.00000E+00  9.000E+00
      25     1     1     2     0     0 -1.821419710E+01 -9.388123227E+00 -4.924071812E+02  5.084394724E+02  1.250038844E+02  0.00000E+00  9.000E+00
       5     1     1     2   501     0 -4.308054611E-01 -8.725548199E-01  6.790002387E+00  8.343475156E+00  4.750000000E+00  0.00000E+00  9.000E+00
      -5     1     1     2     0   503  2.638617772E+01  1.373814185E+01 -3.494009176E+02  3.506972065E+02  4.750000000E+00  0.00000E+00  9.000E+00
       1     1     1     2   503     0 -7.741175167E+00 -3.477463800E+00 -5.138944482E+02  5.139645147E+02  1.078959322E-05  0.00000E+00  9.000E+00
#rwgt            1           9   2.0234772898175351E-003           3      407291           0
</event>
<event>
      6   9999  3.45752E-01  3.54847E+01 -1.00000E+00  1.43271E-01
      21    -1     0     0   511   502  0.000000000E+00  0.000000000E+00  6.255807524E+01  6.255807524E+01  0.000000000E+00  0.00000E+00  9.000E+00
      21    -1     0     0   502   503  0.000000000E+00  0.000000000E+00 -1.155184979E+03  1.155184979E+03  0.000000000E+00  0.00000E+00  9.000E+00
      25     1     1     2     0     0 -5.481546912E+01  4.278847019E+00 -4.493254618E+02  4.696189935E+02  1.250023368E+02  0.00000E+00  9.000E+00
       5     1     1     2   501     0 -6.784953662E+00 -6.648860826E+00  2.694380108E+01  2.896159290E+01  4.750000000E+00  0.00000E+00  9.000E+00
      -5     1     1     2     0   503  2.638015138E+01 -1.953698258E+00 -6.814277201E+02  6.819574983E+02  4.750000000E+00  0.00000E+00  9.000E+00
      21     1     1     2   511   501  3.522027141E+01  4.323712064E+00  1.118247667E+01  3.720496994E+01  6.419616708E-07  0.00000E+00  9.000E+00
#rwgt            1           9   9.9200546382437558E-003           3      410342           0
</event>
<event>
      6   9999 -3.45752E-01  2.37014E+01 -1.00000E+00  1.54778E-01
      21    -1     0     0   501   502  0.000000000E+00  0.000000000E+00  4.695945678E+00  4.695945678E+00  0.000000000E+00  0.00000E+00  9.000E+00
      21    -1     0     0   512   503  0.000000000E+00  0.000000000E+00 -4.277888434E+03  4.277888434E+03  0.000000000E+00  0.00000E+00  9.000E+00
      25     1     1     2     0     0  3.103771435E+01  4.783240171E+01 -2.786636417E+03  2.790021267E+03  1.249994748E+02  0.00000E+00  9.000E+00
       5     1     1     2   501     0 -3.221437586E+01 -1.838516849E+01 -2.094306776E+02  2.127429239E+02  4.750000000E+00  0.00000E+00  9.000E+00
      -5     1     1     2     0   503 -5.973719967E+00 -5.204436935E+01 -6.067059668E+02  6.089819327E+02  4.750000000E+00  0.00000E+00  9.000E+00
      21     1     1     2   512   502  7.150381484E+00  2.259713612E+01 -6.704194262E+02  6.708382559E+02  1.321449896E-05  0.00000E+00  9.000E+00
#rwgt            1           9  -3.4438991546505241E-004           3      411930           0
</event>
<event>
      6   9999  3.45752E-01  2.37526E+01 -1.00000E+00  1.54712E-01
      21    -1     0     0   501   502  0.000000000E+00  0.000000000E+00  2.055462971E+01  2.055462971E+01  0.000000000E+00  0.00000E+00  9.000E+00
      21    -1     0     0   511   503  0.000000000E+00  0.000000000E+00 -1.227442094E+03  1.227442094E+03  0.000000000E+00  0.00000E+00  9.000E+00
      25     1     1     2     0     0  2.011507869E+01 -6.694894574E+01 -8.692343035E+02  8.809533257E+02  1.249948396E+02  0.00000E+00  9.000E+00
       5     1     1     2   501     0 -3.036230076E+00 -2.421211816E+00  6.573001263E+00  8.991540765E+00  4.750000000E+00  0.00000E+00  9.000E+00
      -5     1     1     2     0   503 -2.675676721E+01  4.767855679E+01 -1.131311533E+02  1.257393722E+02  4.750000000E+00  0.00000E+00  9.000E+00
      21     1     1     2   511   502  9.677918593E+00  2.169160076E+01 -2.310950087E+02  2.323124850E+02  2.697398305E-06  0.00000E+00  9.000E+00
#rwgt            1           9   1.9301123836279607E-004           3      413160           0
</event>
<event>
      6   9999  3.45752E-01  7.23905E+00 -1.00000E+00  2.03297E-01
      21    -1     0     0   501   512  0.000000000E+00  0.000000000E+00  1.457775178E+01  1.457775178E+01  0.000000000E+00  0.00000E+00  9.000E+00
      21    -1     0     0   502   503  0.000000000E+00  0.000000000E+00 -1.379795127E+03  1.379795127E+03  0.000000000E+00  0.00000E+00  9.000E+00
      25     1     1     2     0     0 -5.255834872E+00  9.969293482E+00 -1.308997136E+03  1.315000511E+03  1.250033303E+02  0.00000E+00  9.000E+00
       5     1     1     2   501     0 -1.326067534E+00 -1.494603806E+00  4.580364759E+00  6.894529496E+00  4.750000000E+00  0.00000E+00  9.000E+00
      -5     1     1     2     0   503  4.368101863E+00 -1.582449457E+00 -6.415586802E+01  6.449901055E+01  4.750000000E+00  0.00000E+00  9.000E+00
      21     1     1     2   502   512  2.213800542E+00 -6.892240220E+00  3.355264009E+00  7.978827274E+00  4.420398764E-07  0.00000E+00  9.000E+00
#rwgt            1           9   7.3451595787936158E-006           3      414846           0
</event>
<event>
      6   9999  3.45752E-01  6.96767E+00 -1.00000E+00  2.05395E-01
      21    -1     0     0   501   511  0.000000000E+00  0.000000000E+00  1.299829247E+01  1.299829247E+01  0.000000000E+00  0.00000E+00  9.000E+00
      21    -1     0     0   502   503  0.000000000E+00  0.000000000E+00 -6.804611548E+02  6.804611548E+02  0.000000000E+00  0.00000E+00  9.000E+00
      25     1     1     2     0     0 -5.738873526E+00 -6.115091033E+00 -5.820536053E+02  5.953833846E+02  1.249985849E+02  0.00000E+00  9.000E+00
       5     1     1     2   501     0  7.462308188E+00 -2.343202130E+00 -1.313303804E+01  1.600674320E+01  4.750000000E+00  0.00000E+00  9.000E+00
      -5     1     1     2     0   503  5.059584137E+00  1.005173048E+01 -7.391011478E+01  7.491264409E+01  4.750000000E+00  0.00000E+00  9.000E+00
      21     1     1     2   502   511 -6.783018799E+00 -1.593437316E+00  1.633895794E+00  7.156675344E+00  3.257872330E-07  0.00000E+00  9.000E+00
#rwgt            1           9   1.4324613517013637E-003           3      418593           0
</event>
<event>
      6   9999  3.45752E-01  1.98516E+01 -1.00000E+00  1.60458E-01
      21    -1     0     0   501   502  0.000000000E+00  0.000000000E+00  2.147992794E+01  2.147992794E+01  0.000000000E+00  0.00000E+00  9.000E+00
       2    -1     0     0   502     0  0.000000000E+00  0.000000000E+00 -2.083230350E+03  2.083230350E+03  0.000000000E+00  0.00000E+00  9.000E+00
      25     1     1     2     0     0 -1.038580035E+01  6.226950391E+00 -5.966013220E+02  6.096764271E+02  1.250022744E+02  0.00000E+00  9.000E+00
       5     1     1     2   501     0  7.134031798E-01  5.130741971E+00  1.366717123E+01  1.536839376E+01  4.750000000E+00  0.00000E+00  9.000E+00
      -5     1     1     2     0   503  2.036719852E-03  5.979245737E+00 -4.058380163E+01  4.129599059E+01  4.750000000E+00  0.00000E+00  9.000E+00
       2     1     1     2   503     0  9.670360446E+00 -1.733693810E+01 -1.438232470E+03  1.438369466E+03  1.525878906E-05  0.00000E+00  9.000E+00
#rwgt            1           9   8.8095131473365937E-002           3      421141           0
</event>
<event>
      6   9999  3.45752E-01  1.32942E+01 -1.00000E+00  1.75044E-01
      21    -1     0     0   511   502  0.000000000E+00  0.000000000E+00  7.816043548E+00  7.816043548E+00  0.000000000E+00  0.00000E+00  9.000E+00
      21    -1     0     0   502   503  0.000000000E+00  0.000000000E+00 -8.482220729E+02  8.482220729E+02  0.000000000E+00  0.00000E+00  9.000E+00
      25     1     1     2     0     0  6.346884842E+00 -1.238596032E+01 -7.488959550E+02  7.593843645E+02  1.250030669E+02  0.00000E+00  9.000E+00
       5     1     1     2   501     0 -4.816253372E-01 -1.644263471E+00 -4.899757500E+00  7.036027920E+00  4.750000000E+00  0.00000E+00  9.000E+00
      -5     1     1     2     0   503 -7.187764392E+00  8.019846719E-01 -4.823417364E+01  4.900413394E+01  4.750000000E+00  0.00000E+00  9.000E+00
      21     1     1     2   511   501  1.322504887E+00  1.322823912E+01 -3.837614328E+01  4.061359012E+01  8.259061849E-07  0.00000E+00  9.000E+00
#rwgt            1           9   3.4378352624501007E-002           3      423503           0
</event>
<event>
      6   9999  3.45752E-01  8.35733E+00 -1.00000E+00  1.95795E-01
      21    -1     0     0   501   502  0.000000000E+00  0.000000000E+00  1.048632700E+01  1.048632700E+01  0.000000000E+00  0.00000E+00  9.000E+00
      21    -1     0     0   512   503  0.000000000E+00  0.000000000E+00 -1.041333072E+03  1.041333072E+03  0.000000000E+00  0.00000E+00  9.000E+00
      25     1     1     2     0     0 -8.005102266E+00  1.850429717E+01 -5.777361527E+02  5.914549720E+02  1.250337195E+02  0.00000E+00  9.000E+00
       5     1     1     2   501     0 -1.431925232E+00 -9.357057541E-01  1.284899327E+00  5.209550980E+00  4.750000000E+00  0.00000E+00  9.000E+00
      -5     1     1     2     0   503  1.364422382E+00 -1.540573567E+01 -2.124826799E+02  2.130977477E+02  4.750000000E+00  0.00000E+00  9.000E+00
      21     1     1     2   512   502  8.072605116E+00 -2.162855746E+00 -2.419128119E+02  2.420571285E+02  2.697398305E-06  0.00000E+00  9.000E+00
#rwgt            1           9   3.7392154643062256E-003           3      425358           0
</event>
<event>
      6   9999  3.45752E-01  1.68145E+01 -1.00000E+00  1.66183E-01
      21    -1     0     0   501   502  0.000000000E+00  0.000000000E+00  1.258600744E+01  1.258600744E+01  0.000000000E+00  0.00000E+00  9.000E+00
       2    -1     0     0   502     0  0.000000000E+00  0.000000000E+00 -2.625946758E+03  2.625946758E+03  0.000000000E+00  0.00000E+00  9.000E+00
      25     1     1     2     0     0  8.273416062E-01 -1.338592843E+01 -8.946547757E+02  9.034453472E+02  1.250058400E+02  0.00000E+00  9.000E+00
       5     1     1     2   501     0 -2.593390595E+00 -2.867329691E+00  6.913443088E+00  9.236094936E+00  4.750000000E+00  0.00000E+00  9.000E+00
      -5     1     1     2     0   503  1.484010489E+00 -5.588609173E-01 -8.598983308E+01  8.613552407E+01  4.750000000E+00  0.00000E+00  9.000E+00
       2     1     1     2   503     0  2.820385002E-01  1.681211904E+01 -1.639629585E+03  1.639715799E+03  2.157918644E-05  0.00000E+00  9.000E+00
#rwgt            1           9   3.1141516921748508E-002           3      428043           0
</event>
<event>
      6   9999  3.45752E-01  2.77148E+01 -1.00000E+00  1.50099E-01
      21    -1     0     0   501   511  0.000000000E+00  0.000000000E+00  8.477146869E+01  8.477146869E+01  0.000000000E+00  0.00000E+00  9.000E+00
      21    -1     0     0   502   503  0.000000000E+00  0.000000000E+00 -8.869132023E+02  8.869132023E+02  0.000000000E+00  0.00000E+00  9.000E+00
      25     1     1     2     0     0 -9.062898699E+00  1.168409698E+01 -8.325107696E+02  8.419723791E+02  1.249986058E+02  0.00000E+00  9.000E+00
       5     1     1     2   501     0 -5.796246969E+00  4.934775779E+00  6.648989771E+00  1.116781339E+01  4.750000000E+00  0.00000E+00  9.000E+00
      -5     1     1     2     0   503  1.337524715E-01  6.860330969E+00 -4.430823671E+01  4.508729722E+01  4.750000000E+00  0.00000E+00  9.000E+00
      21     1     1     2   502   511  1.472539320E+01 -2.347920373E+01  6.802828288E+01  7.345718130E+01  1.907348633E-06  0.00000E+00  9.000E+00
#rwgt            1           9   2.5709411398502969E-003           3      430272           0
</event>
<event>
      6   9999  3.45752E-01  1.07907E+01 -1.00000E+00  1.83778E-01
      21    -1     0     0   501   512  0.000000000E+00  0.000000000E+00  1.551941067E+02  1.551941067E+02  0.000000000E+00  0.00000E+00  9.000E+00
      21    -1     0     0   502   503  0.000000000E+00  0.000000000E+00 -7.524266466E+02  7.524266466E+02  0.000000000E+00  0.00000E+00  9.000E+00
      25     1     1     2     0     0  9.355609557E+00 -2.333572365E+01 -6.850564938E+02  6.968213580E+02  1.250020875E+02  0.00000E+00  9.000E+00
       5     1     1     2   501     0  1.395981755E-01 -4.272342425E-01 -6.149431479E+00  7.783317048E+00  4.750000000E+00  0.00000E+00  9.000E+00
      -5     1     1     2     0   503 -2.753784349E+00  1.533729805E+01 -5.310240574E+01  5.554497309E+01  4.750000000E+00  0.00000E+00  9.000E+00
      21     1     1     2   502   512 -6.741423383E+00  8.425659843E+00  1.470757911E+02  1.474711052E+02  3.303624740E-06  0.00000E+00  9.000E+00
#rwgt            1           9   1.6948690299647183E-003           3      431784           0
</event>
<event>
      6   9999  3.45752E-01  6.02177E+00 -1.00000E+00  2.13839E-01
      21    -1     0     0   501   502  0.000000000E+00  0.000000000E+00  1.557117989E+01  1.557117989E+01  0.000000000E+00  0.00000E+00  9.000E+00
      21    -1     0     0   511   503  0.000000000E+00  0.000000000E+00 -9.198224713E+02  9.198224713E+02  0.000000000E+00  0.00000E+00  9.000E+00
      25     1     1     2     0     0 -6.691963241E+00 -6.490501721E+01 -5.699227057E+02  5.871067938E+02  1.250002133E+02  0.00000E+00  9.000E+00
       5     1     1     2   501     0  6.651167190E-01  1.203711762E+00  1.028781067E+00  5.050959586E+00  4.750000000E+00  0.00000E+00  9.000E+00
      -5     1     1     2     0   503  1.203994631E+01  6.402432644E+01 -2.783540708E+02  2.859154174E+02  4.750000000E+00  0.00000E+00  9.000E+00
      21     1     1     2   511   502 -6.013099790E+00 -3.230209926E-01 -5.700329611E+01  5.732048045E+01  6.743495762E-07  0.00000E+00  9.000E+00
#rwgt            1           9   1.8759908031159732E-004           3      433827           0
</event>
<event>
      6   9999  3.45752E-01  9.23949E+00 -1.00000E+00  1.90886E-01
      21    -1     0     0   501   502  0.000000000E+00  0.000000000E+00  1.674416679E+01  1.674416679E+01  0.000000000E+00  0.00000E+00  9.000E+00
       2    -1     0     0   502     0  0.000000000E+00  0.000000000E+00 -3.912872547E+03  3.912872547E+03  0.000000000E+00  0.00000E+00  9.000E+00
      25     1     1     2     0     0  5.181330495E+01  1.153375813E+01 -4.323267645E+02  4.531536018E+02  1.249964375E+02  0.00000E+00  9.000E+00
       5     1     1     2   501     0 -1.181703766E+00  2.869832744E+00  2.888554505E+00  6.366993867E+00  4.750000000E+00  0.00000E+00  9.000E+00
      -5     1     1     2     0   503 -5.490239965E+01 -6.210394838E+00 -4.516641663E+02  4.550559572E+02  4.750000000E+00  0.00000E+00  9.000E+00
       2     1     1     2   503     0  4.270798466E+00 -8.193196037E+00 -3.015026004E+03  3.015040161E+03  4.315837288E-05  0.00000E+00  9.000E+00
#rwgt            1           9   1.2126173603285671E-003           3      437539           0
</event>
<event>
      6   9999  3.45752E-01  2.48847E+01 -1.00000E+00  1.53289E-01
      21    -1     0     0   502   503  0.000000000E+00  0.000000000E+00  1.347068053E+01  1.347068053E+01  0.000000000E+00  0.00000E+00  9.000E+00
      21    -1     0     0   511   502  0.000000000E+00  0.000000000E+00 -8.523537938E+02  8.523537938E+02  0.000000000E+00  0.00000E+00  9.000E+00
      25     1     1     2     0     0  3.523920860E+00  1.726896988E+01 -3.605600605E+02  3.820221152E+02  1.250068156E+02  0.00000E+00  9.000E+00
       5     1     1     2   501     0 -2.931484038E+00 -1.449459089E+01 -1.597554032E+02  1.605086855E+02  4.750000000E+00  0.00000E+00  9.000E+00
      -5     1     1     2     0   503  1.768803672E+01 -1.965843664E+01 -2.199454096E+02  2.215803838E+02  4.750000000E+00  0.00000E+00  9.000E+00
      21     1     1     2   511   501 -1.828047354E+01  1.688405765E+01 -9.862223991E+01  1.017132898E+02  1.348699152E-06  0.00000E+00  9.000E+00
#rwgt            1           9   1.1386709550828687E-004           3      440445           0
</event>
<event>
      6   9999  3.45752E-01  1.80472E+01 -1.00000E+00  1.63693E-01
      21    -1     0     0   501   512  0.000000000E+00  0.000000000E+00  1.576217436E+01  1.576217436E+01  0.000000000E+00  0.00000E+00  9.000E+00
      21    -1     0     0   502   503  0.000000000E+00  0.000000000E+00 -8.690704189E+02  8.690704189E+02  0.000000000E+00  0.00000E+00  9.000E+00
      25     1     1     2     0     0  3.300168631E+01 -1.200909496E+01 -5.643825109E+02  5.791258607E+02  1.250032569E+02  0.00000E+00  9.000E+00
       5     1     1     2   501     0  1.692108234E+01 -4.214371871E+00 -3.909918835E+01  4.307427292E+01  4.750000000E+00  0.00000E+00  9.000E+00
      -5     1     1     2     0   503 -5.221952315E+01 -1.676954449E+00 -2.296335760E+02  2.355500637E+02  4.750000000E+00  0.00000E+00  9.000E+00
      21     1     1     2   502   512  2.296754499E+00  1.790042128E+01 -2.019296931E+01  2.708239600E+01  2.384185791E-07  0.00000E+00  9.000E+00
#rwgt            1           9  0.12127258945184155                3      442314           0
</event>
<event>
      6   9999  3.45752E-01  9.03745E+00 -1.00000E+00  1.91946E-01
      21    -1     0     0   501   502  0.000000000E+00  0.000000000E+00  1.149170823E+03  1.149170823E+03  0.000000000E+00  0.00000E+00  9.000E+00
      21    -1     0     0   502   511  0.000000000E+00  0.000000000E+00 -1.317607308E+01  1.317607308E+01  0.000000000E+00  0.00000E+00  9.000E+00
      25     1     1     2     0     0 -3.108327414E+01  2.834135427E+01  4.491066830E+02  4.680718168E+02  1.250000424E+02  0.00000E+00  9.000E+00
       5     1     1     2   501     0  7.055366104E-01  2.938262247E-01  5.098001598E+02  5.098228610E+02  4.750000000E+00  0.00000E+00  9.000E+00
      -5     1     1     2     0   503  3.557992043E+01 -2.124513190E+01  1.565940778E+02  1.620541702E+02  4.750000000E+00  0.00000E+00  9.000E+00
      21     1     1     2   503   511 -5.202182905E+00 -7.390048600E+00  2.049382942E+01  2.239804834E+01  4.129530925E-07  0.00000E+00  9.000E+00
#rwgt            1           9   6.6919927116533269E-004           3      444480           0
</event>
<event>
      6   9999  3.45752E-01  4.68649E+00 -1.00000E+00  2.34423E-01
      21    -1     0     0   512   502  0.000000000E+00  0.000000000E+00  9.270033433E+01  9.270033433E+01  0.000000000E+00  0.00000E+00  9.000E+00
      21    -1     0     0   502   503  0.000000000E+00  0.000000000E+00 -2.371247686E+02  2.371247686E+02  0.000000000E+00  0.00000E+00  9.000E+00
      25     1     1     2     0     0  1.746719256E+00 -5.855751043E+00 -2.055256651E+02  2.406306999E+02  1.249999755E+02  0.00000E+00  9.000E+00
       5     1     1     2   501     0  7.435956831E-02  1.417891990E-01  2.422500117E+00  5.334476576E+00  4.750000000E+00  0.00000E+00  9.000E+00
      -5     1     1     2     0   503 -2.535256147E+00  1.082208328E+00 -1.191029582E+01  1.311550018E+01  4.750000000E+00  0.00000E+00  9.000E+00
      21     1     1     2   512   501  7.141773230E-01  4.631753517E+00  7.058902649E+01  7.074442628E+01  1.651812370E-06  0.00000E+00  9.000E+00
#rwgt            1           9   3.7599665547828951E-004           3      447076           0
</event>
<event>
      6   9999  3.45752E-01  1.35207E+01 -1.00000E+00  1.74374E-01
      21    -1     0     0   511   502  0.000000000E+00  0.000000000E+00  2.778636639E+01  2.778636639E+01  0.000000000E+00  0.00000E+00  9.000E+00
      21    -1     0     0   502   503  0.000000000E+00  0.000000000E+00 -2.562624033E+02  2.562624033E+02  0.000000000E+00  0.00000E+00  9.000E+00
      25     1     1     2     0     0  2.269364812E+01 -1.268063461E+01 -1.648961980E+02  2.085466676E+02  1.250006251E+02  0.00000E+00  9.000E+00
       5     1     1     2   501     0  4.581357704E-01 -3.094978748E-02 -2.487164912E+00  5.381387886E+00  4.750000000E+00  0.00000E+00  9.000E+00
      -5     1     1     2     0   503 -1.008799760E+01  1.619695946E+01 -4.495518599E+01  4.906771280E+01  4.750000000E+00  0.00000E+00  9.000E+00
      21     1     1     2   511   501 -1.306378629E+01 -3.485375066E+00 -1.613748799E+01  2.105300146E+01  3.371747881E-07  0.00000E+00  9.000E+00
#rwgt            1           9   2.7196220473600648E-003           3      451619           0
</event>
<event>
      6   9999 -3.45752E-01  3.12943E+01 -1.00000E+00  1.46661E-01
      21    -1     0     0   502   512  0.000000000E+00  0.000000000E+00  7.906769477E+02  7.906769477E+02  0.000000000E+00  0.00000E+00  9.000E+00
      21    -1     0     0   501   502  0.000000000E+00  0.000000000E+00 -1.155097639E+03  1.155097639E+03  0.000000000E+00  0.00000E+00  9.000E+00
      25     1     1     2     0     0 -5.850181194E+01  2.266023441E+01 -6.314987902E+02  6.468010587E+02  1.249997567E+02  0.00000E+00  9.000E+00
       5     1     1     2   501     0 -3.464132883E+01 -1.396516565E+01 -3.782247884E+02  3.800941996E+02  4.750000000E+00  0.00000E+00  9.000E+00
      -5     1     1     2     0   503  1.076310434E+02 -3.643377284E+01 -1.127699602E+02  1.601608183E+02  4.750000000E+00  0.00000E+00  9.000E+00
      21     1     1     2   503   512 -1.448790263E+01  2.773870409E+01  7.580728477E+02  7.587185100E+02  0.000000000E+00  0.00000E+00  9.000E+00
#rwgt            1           9  -8.8330413781029411E-004           3      453460           0
</event>
<event>
      6   9999  3.45752E-01  2.58966E+01 -1.00000E+00  1.52092E-01
       1    -1     0     0   501     0  0.000000000E+00  0.000000000E+00  3.497608673E+01  3.497608673E+01  0.000000000E+00  0.00000E+00  9.000E+00
      21    -1     0     0   502   503  0.000000000E+00  0.000000000E+00 -2.353944652E+03  2.353944652E+03  0.000000000E+00  0.00000E+00  9.000E+00
      25     1     1     2     0     0  1.119411734E+01  8.972560958E+00 -2.196425072E+03  2.200026034E+03  1.250025605E+02  0.00000E+00  9.000E+00
       5     1     1     2   501     0 -1.278577992E+01  1.140689048E+01  1.215752997E+01  2.153976215E+01  4.750000000E+00  0.00000E+00  9.000E+00
      -5     1     1     2     0   503 -5.212330488E+00  4.607362011E+00 -1.405531233E+02  1.408053236E+02  4.750000000E+00  0.00000E+00  9.000E+00
       1     1     1     2   502     0  6.803993067E+00 -2.498681345E+01  5.852100123E+00  2.654961853E+01  5.527507362E-07  0.00000E+00  9.000E+00
#rwgt            1           9   5.5221459816024243E-003           3      454970           0
</event>
<event>
      6   9999  3.45752E-01  1.25153E+01 -1.00000E+00  1.77482E-01
      21    -1     0     0   501   502  0.000000000E+00  0.000000000E+00  6.484660159E+02  6.484660159E+02  0.000000000E+00  0.00000E+00  9.000E+00
      21    -1     0     0   511   503  0.000000000E+00  0.000000000E+00 -1.827425992E+01  1.827425992E+01  0.000000000E+00  0.00000E+00  9.000E+00
      25     1     1     2     0     0  1.526667368E+01 -4.047860140E+01  3.456375102E+02  3.700841428E+02  1.250015833E+02  0.00000E+00  9.000E+00
       5     1     1     2   501     0 -1.350143179E+00 -1.709289559E+00  2.065037837E+02  2.065698907E+02  4.750000000E+00  0.00000E+00  9.000E+00
      -5     1     1     2     0   503 -1.186255951E+01  2.984230934E+01  5.562599180E+01  6.440572342E+01  4.750000000E+00  0.00000E+00  9.000E+00
      21     1     1     2   511   502 -2.053970992E+00  1.234558161E+01  2.242447029E+01  2.568051889E+01  2.384185791E-07  0.00000E+00  9.000E+00
#rwgt            1           9  0.61587661345191103                3      457028           0
</event>
<event>
      6   9999 -3.45752E-01  7.72369E+00 -1.00000E+00  1.99840E-01
      21    -1     0     0   512   502  0.000000000E+00  0.000000000E+00  1.611971822E+01  1.611971822E+01  0.000000000E+00  0.00000E+00  9.000E+00
      21    -1     0     0   502   503  0.000000000E+00  0.000000000E+00 -8.151559213E+02  8.151559213E+02  0.000000000E+00  0.00000E+00  9.000E+00
      25     1     1     2     0     0 -1.493858448E-01 -1.339345953E+00 -6.994546013E+02  7.105371164E+02  1.249977532E+02  0.00000E+00  9.000E+00
       5     1     1     2   501     0 -1.327639697E+00 -8.997288629E-01 -1.939721338E+00  5.375607692E+00  4.750000000E+00  0.00000E+00  9.000E+00
      -5     1     1     2     0   503 -1.925180369E+00 -4.694928110E+00 -1.046817863E+02  1.049122850E+02  4.750000000E+00  0.00000E+00  9.000E+00
      21     1     1     2   512   501  3.402205910E+00  6.934002926E+00  7.039905852E+00  1.045063041E+01  4.214684851E-07  0.00000E+00  9.000E+00
#rwgt            1           9  -2.8256767870604486E-002           3      459002           0
</event>
<event>
      6   9999  3.45752E-01  3.50116E+00 -1.00000E+00  2.60465E-01
       1    -1     0     0   501     0  0.000000000E+00  0.000000000E+00  8.904944668E+01  8.904944668E+01  0.000000000E+00  0.00000E+00  9.000E+00
      21    -1     0     0   502   503  0.000000000E+00  0.000000000E+00 -8.330405117E+02  8.330405117E+02  0.000000000E+00  0.00000E+00  9.000E+00
      25     1     1     2     0     0 -4.549545876E+01 -1.084901604E+01 -5.399280231E+02  5.561771216E+02  1.249927299E+02  0.00000E+00  9.000E+00
       5     1     1     2   501     0  1.073586018E+00 -1.424689357E+00  4.262930761E+00  6.627020852E+00  4.750000000E+00  0.00000E+00  9.000E+00
      -5     1     1     2     0   503  4.740489793E+01  1.044075521E+01 -2.816683828E+02  2.858598854E+02  4.750000000E+00  0.00000E+00  9.000E+00
       1     1     1     2   502     0 -2.983025194E+00  1.832950184E+00  7.334241014E+01  7.342593051E+01  2.523185073E-06  0.00000E+00  9.000E+00
#rwgt            1           9   4.5256322098499844E-005           3      461716           0
</event>
<event>
      6   9999  3.45752E-01  3.16781E+01 -1.00000E+00  1.46325E-01
      21    -1     0     0   501   502  0.000000000E+00  0.000000000E+00  9.419317818E+01  9.419317818E+01  0.000000000E+00  0.00000E+00  9.000E+00
      21    -1     0     0   502   511  0.000000000E+00  0.000000000E+00 -2.222148364E+03  2.222148364E+03  0.000000000E+00  0.00000E+00  9.000E+00
      25     1     1     2     0     0  9.095006035E+01  1.062146696E+02 -6.086884772E+02  6.369300862E+02  1.249992118E+02  0.00000E+00  9.000E+00
       5     1     1     2   501     0 -3.879404629E+00  4.728473286E+00  7.596501308E+01  7.635871890E+01  4.750000000E+00  0.00000E+00  9.000E+00
      -5     1     1     2     0   503 -5.547440108E+01 -1.132190918E+02 -1.232934421E+03  1.239373157E+03  4.750000000E+00  0.00000E+00  9.000E+00
      21     1     1     2   503   511 -3.159625464E+01  2.275948860E+00 -3.622973001E+02  3.636795800E+02  5.394796609E-06  0.00000E+00  9.000E+00
#rwgt            1           9  0.10032293633703832                3      467618           0
</event>
<event>
      6   9999 -3.45752E-01  4.41610E+00 -1.00000E+00  2.39278E-01
      21    -1     0     0   501   502  0.000000000E+00  0.000000000E+00  2.677163458E+02  2.677163458E+02  0.000000000E+00  0.00000E+00  9.000E+00
      21    -1     0     0   502   512  0.000000000E+00  0.000000000E+00 -3.490808994E+02  3.490808994E+02  0.000000000E+00  0.00000E+00  9.000E+00
      25     1     1     2     0     0  2.192524367E+00  4.396578921E+00 -3.299999546E+02  3.529158406E+02  1.250019335E+02  0.00000E+00  9.000E+00
       5     1     1     2   501     0 -2.835981794E+00  4.300619916E-02  2.497015975E+02  2.497628774E+02  4.750000000E+00  0.00000E+00  9.000E+00
      -5     1     1     2     0   503 -3.735476227E+00 -5.011305973E+00  2.713095086E+00  8.306043291E+00  4.750000000E+00  0.00000E+00  9.000E+00
      21     1     1     2   503   512  4.378933654E+00  5.717208533E-01 -3.779291592E+00  5.812483946E+00  1.032382731E-07  0.00000E+00  9.000E+00
#rwgt            1           9  -8.8838140020845686E-005           3      469646           0
</event>
<event>
      6   9999  3.45752E-01  2.92042E+01 -1.00000E+00  1.48597E-01
      21    -1     0     0   501   502  0.000000000E+00  0.000000000E+00  7.139686478E+01  7.139686478E+01  0.000000000E+00  0.00000E+00  9.000E+00
      21    -1     0     0   502   511  0.000000000E+00  0.000000000E+00 -1.520195410E+03  1.520195410E+03  0.000000000E+00  0.00000E+00  9.000E+00
      25     1     1     2     0     0 -1.294131197E+01 -2.021002432E+02 -9.629728479E+02  9.919444068E+02  1.250000583E+02  0.00000E+00  9.000E+00
       5     1     1     2   501     0  1.864462307E+00 -1.244767745E+00  3.745525747E+01  3.782174611E+01  4.750000000E+00  0.00000E+00  9.000E+00
      -5     1     1     2     0   503  4.707373087E+00  1.748438880E+02 -4.365073379E+02  4.702698832E+02  4.750000000E+00  0.00000E+00  9.000E+00
      21     1     1     2   503   511  6.369476577E+00  2.850112302E+01 -8.677361716E+01  9.155623889E+01  1.348699152E-06  0.00000E+00  9.000E+00
#rwgt            1           9   2.3237957486461935E-004           3      477703           0
</event>
<event>
      6   9999  3.45752E-01  3.26623E+00 -1.00000E+00  2.67597E-01
      21    -1     0     0   512   502  0.000000000E+00  0.000000000E+00  1.219930078E+02  1.219930078E+02  0.000000000E+00  0.00000E+00  9.000E+00
      21    -1     0     0   502   503  0.000000000E+00  0.000000000E+00 -7.712449347E+02  7.712449347E+02  0.000000000E+00  0.00000E+00  9.000E+00
      25     1     1     2     0     0  8.120430996E+00  1.955479270E+00 -6.652387242E+02  6.769315313E+02  1.249958905E+02  0.00000E+00  9.000E+00
       5     1     1     2   501     0 -1.814258876E-01 -7.583346528E-01 -9.063514329E-01  4.898158809E+00  4.750000000E+00  0.00000E+00  9.000E+00
      -5     1     1     2     0   503 -1.075715855E+01 -2.848294337E+00 -9.685772022E+01  9.761049998E+01  4.750000000E+00  0.00000E+00  9.000E+00
      21     1     1     2   512   501  2.818153439E+00  1.651149720E+00  1.137508689E+02  1.137977524E+02  1.907348633E-06  0.00000E+00  9.000E+00
#rwgt            1           9   3.3600463388394841                3      480038           0
</event>
<event>
      6   9999  3.45752E-01  7.44960E+00 -1.00000E+00  2.01752E-01
      21    -1     0     0   501   502  0.000000000E+00  0.000000000E+00  2.806251326E+01  2.806251326E+01  0.000000000E+00  0.00000E+00  9.000E+00
      21    -1     0     0   511   503  0.000000000E+00  0.000000000E+00 -1.015138180E+03  1.015138180E+03  0.000000000E+00  0.00000E+00  9.000E+00
      25     1     1     2     0     0 -7.290052453E+01 -6.677832977E+00 -2.399887235E+02  2.803171318E+02  1.249961080E+02  0.00000E+00  9.000E+00
       5     1     1     2   501     0  7.520008763E-01 -2.923926871E+00  4.350179470E+00  7.113467163E+00  4.750000000E+00  0.00000E+00  9.000E+00
      -5     1     1     2     0   503  7.032479012E+01  1.682468051E+01 -7.079964499E+02  7.116952870E+02  4.750000000E+00  0.00000E+00  9.000E+00
      21     1     1     2   511   502  1.823733531E+00 -7.222920663E+00 -4.344067269E+01  4.407480721E+01  6.743495762E-07  0.00000E+00  9.000E+00
#rwgt            1           9   416.51461654825050                3      485155           0
</event>
<event>
      6   9999  3.45752E-01  2.07150E+01 -1.00000E+00  1.59055E-01
      21    -1     0     0   501   512  0.000000000E+00  0.000000000E+00  1.491443591E+03  1.491443591E+03  0.000000000E+00  0.00000E+00  9.000E+00
      21    -1     0     0   502   503  0.000000000E+00  0.000000000E+00 -3.141832476E+01  3.141832476E+01  0.000000000E+00  0.00000E+00  9.000E+00
      25     1     1     2     0     0  1.812301556E+01  2.306985601E+01  1.090366832E+02  1.684451930E+02  1.249964911E+02  0.00000E+00  9.000E+00
       5     1     1     2   501     0  2.319401596E+00 -2.448619245E+00  1.200246547E+03  1.200260685E+03  4.750000000E+00  0.00000E+00  9.000E+00
      -5     1     1     2     0   503 -4.105591503E+00 -7.884661874E+00  2.994540027E+01  3.159609583E+01  4.750000000E+00  0.00000E+00  9.000E+00
      21     1     1     2   502   512 -1.633682565E+01 -1.273657490E+01  1.207966357E+02  1.225599421E+02  2.336015456E-06  0.00000E+00  9.000E+00
#rwgt            1           9   3.6316027301655012E-003           3      489404           0
</event>
<event>
      6   9999  3.45752E-01  3.20507E+01 -1.00000E+00  1.46004E-01
      21    -1     0     0   501   502  0.000000000E+00  0.000000000E+00  2.656055219E+01  2.656055219E+01  0.000000000E+00  0.00000E+00  9.000E+00
      21    -1     0     0   511   503  0.000000000E+00  0.000000000E+00 -5.177766444E+02  5.177766444E+02  0.000000000E+00  0.00000E+00  9.000E+00
      25     1     1     2     0     0 -3.111345746E+01 -1.239382004E+01 -1.574376102E+02  2.037953540E+02  1.249971647E+02  0.00000E+00  9.000E+00
       5     1     1     2   501     0 -1.047313473E+00 -5.585213875E-01 -3.830569302E+00  6.216475917E+00  4.750000000E+00  0.00000E+00  9.000E+00
      -5     1     1     2     0   503  3.905966209E+00 -2.177492403E+00 -6.217001712E+00  9.011750966E+00  4.750000000E+00  0.00000E+00  9.000E+00
      21     1     1     2   511   502  2.825480472E+01  1.512983383E+01 -3.237309110E+02  3.253136157E+02  3.814697266E-06  0.00000E+00  9.000E+00
#rwgt            1           9  0.14197660489644423                3      491714           0
</event>
<event>
      6   9999  3.45752E-01  4.56131E+00 -1.00000E+00  2.36609E-01
       1    -1     0     0   501     0  0.000000000E+00  0.000000000E+00  2.724922558E+01  2.724922558E+01  0.000000000E+00  0.00000E+00  9.000E+00
      21    -1     0     0   502   503  0.000000000E+00  0.000000000E+00 -8.773272730E+02  8.773272730E+02  0.000000000E+00  0.00000E+00  9.000E+00
      25     1     1     2     0     0  1.373994244E+01 -4.838170357E+00 -6.570733619E+02  6.690160246E+02  1.249993775E+02  0.00000E+00  9.000E+00
       5     1     1     2   501     0 -2.633931460E+00  3.586797104E+00  8.358601509E+00  1.059393353E+01  4.750000000E+00  0.00000E+00  9.000E+00
      -5     1     1     2     0   503 -1.564196265E+01  1.731637147E+00 -2.123943876E+02  2.130295940E+02  4.750000000E+00  0.00000E+00  9.000E+00
       1     1     1     2   502     0  4.535951666E+00 -4.802638937E-01  1.103110052E+01  1.193694641E+01  4.298152060E-07  0.00000E+00  9.000E+00
#rwgt            1           9   2.1588093466853777E-003           3      493097           0
</event>
<event>
      6   9999  3.45752E-01  9.61338E+00 -1.00000E+00  1.89016E-01
      21    -1     0     0   511   502  0.000000000E+00  0.000000000E+00  1.389037627E+03  1.389037627E+03  0.000000000E+00  0.00000E+00  9.000E+00
      21    -1     0     0   502   503  0.000000000E+00  0.000000000E+00 -7.254959890E+00  7.254959890E+00  0.000000000E+00  0.00000E+00  9.000E+00
      25     1     1     2     0     0 -3.103518133E+01  1.815637913E+01  6.383276505E+02  6.514461699E+02  1.250083450E+02  0.00000E+00  9.000E+00
       5     1     1     2   501     0 -2.370424910E-01  8.801504267E-02  1.753707872E+02  1.754352856E+02  4.750000000E+00  0.00000E+00  9.000E+00
      -5     1     1     2     0   503  2.473432367E+01 -1.119649235E+01  4.829407467E+02  4.837266537E+02  4.750000000E+00  0.00000E+00  9.000E+00
      21     1     1     2   511   501  6.537900154E+00 -7.047901814E+00  8.514348317E+01  8.568447808E+01  9.536743164E-07  0.00000E+00  9.000E+00
#rwgt            1           9   8.6303097119969585E-002           3      497438           0
</event>
<event>
      6   9999  3.45752E-01  3.50669E+01 -1.00000E+00  1.43583E-01
      21    -1     0     0   501   512  0.000000000E+00  0.000000000E+00  2.543459343E+01  2.543459343E+01  0.000000000E+00  0.00000E+00  9.000E+00
      21    -1     0     0   502   503  0.000000000E+00  0.000000000E+00 -9.284064374E+02  9.284064374E+02  0.000000000E+00  0.00000E+00  9.000E+00
      25     1     1     2     0     0  7.286519610E+01  6.662035571E+01 -4.909536440E+02  5.161473073E+02  1.249998146E+02  0.00000E+00  9.000E+00
       5     1     1     2   501     0 -7.403124854E-01  1.766940672E+00 -5.720563811E-01  5.153628859E+00  4.750000000E+00  0.00000E+00  9.000E+00
      -5     1     1     2     0   503 -7.315730871E+01 -3.333557175E+01 -3.679924780E+02  3.767018430E+02  4.750000000E+00  0.00000E+00  9.000E+00
      21     1     1     2   502   512  1.032425092E+00 -3.505172463E+01 -4.345366568E+01  5.583825178E+01  9.536743164E-07  0.00000E+00  9.000E+00
#rwgt            1           9   5.8905274693917507E-002           3      499825           0
</event>
<event>
      6   9999  3.45752E-01  5.66779E+00 -1.00000E+00  2.17563E-01
      21    -1     0     0   502   511  0.000000000E+00  0.000000000E+00  1.901857000E+00  1.901857000E+00  0.000000000E+00  0.00000E+00  9.000E+00
      21    -1     0     0   501   502  0.000000000E+00  0.000000000E+00 -3.689050491E+03  3.689050491E+03  0.000000000E+00  0.00000E+00  9.000E+00
      25     1     1     2     0     0 -8.096396822E+00 -7.970791814E+00 -2.377409330E+03  2.380720235E+03  1.249985236E+02  0.00000E+00  9.000E+00
       5     1     1     2   501     0  9.900181441E+00  1.589132478E+01 -1.097291970E+03  1.097461971E+03  4.750000000E+00  0.00000E+00  9.000E+00
      -5     1     1     2     0   503 -1.979726693E+00 -2.255477578E+00 -1.343363504E+02  1.344537989E+02  4.750000000E+00  0.00000E+00  9.000E+00
      21     1     1     2   503   511  1.759420740E-01 -5.665055386E+00 -7.811098313E+01  7.831634244E+01  0.000000000E+00  0.00000E+00  9.000E+00
#rwgt            1           9   7.1271878274734224                3      500864           0
</event>
<event>
      6   9999 -3.45752E-01  4.30945E+00 -1.00000E+00  2.41337E-01
      -3    -1     0     0     0   502  0.000000000E+00  0.000000000E+00  3.078044043E+01  3.078044043E+01  0.000000000E+00  0.00000E+00  9.000E+00
      21    -1     0     0   502   503  0.000000000E+00  0.000000000E+00 -8.729474489E+02  8.729474489E+02  0.000000000E+00  0.00000E+00  9.000E+00
      25     1     1     2     0     0  2.124186357E+01 -1.303152348E+01 -8.305721063E+02  8.402951897E+02  1.249997788E+02  0.00000E+00  9.000E+00
       5     1     1     2   501     0 -1.994576079E+00  3.978004914E-01  5.356953288E+00  7.442850764E+00  4.750000000E+00  0.00000E+00  9.000E+00
      -5     1     1     2     0   503 -2.245586108E+01  9.756852795E+00 -3.186597565E+01  4.046559993E+01  4.750000000E+00  0.00000E+00  9.000E+00
      -3     1     1     2     0   501  3.208573590E+00  2.876870197E+00  1.491412015E+01  1.552424898E+01  7.725644944E-07  0.00000E+00  9.000E+00
#rwgt            1           9  -1.9191289407121045E-002           3      503797           0
</event>
<event>
      6   9999  3.45752E-01  3.73217E+01 -1.00000E+00  1.41954E-01
      21    -1     0     0   501   511  0.000000000E+00  0.000000000E+00  3.723243721E+01  3.723243721E+01  0.000000000E+00  0.00000E+00  9.000E+00
      21    -1     0     0   502   503  0.000000000E+00  0.000000000E+00 -7.246568776E+02  7.246568776E+02  0.000000000E+00  0.00000E+00  9.000E+00
      25     1     1     2     0     0 -2.727504418E+01  1.634151193E+01 -5.680474563E+02  5.825053256E+02  1.249942749E+02  0.00000E+00  9.000E+00
       5     1     1     2   501     0  4.516216085E+01  1.695452486E+01 -1.103659646E+02  1.205416332E+02  4.750000000E+00  0.00000E+00  9.000E+00
      -5     1     1     2     0   503 -5.971894129E-01 -2.208508604E-01 -1.949553092E+01  2.007594671E+01  4.750000000E+00  0.00000E+00  9.000E+00
      21     1     1     2   502   511 -1.728992726E+01 -3.307518593E+01  1.048451142E+01  3.876640928E+01  7.817075878E-07  0.00000E+00  9.000E+00
#rwgt            1           9   286.79793534148428                3      508600           0
</event>
<event>
      6   9999  3.45752E-01  1.50525E+01 -1.00000E+00  1.70240E-01
      21    -1     0     0   512   502  0.000000000E+00  0.000000000E+00  1.711251642E+01  1.711251642E+01  0.000000000E+00  0.00000E+00  9.000E+00
      21    -1     0     0   502   503  0.000000000E+00  0.000000000E+00 -9.170408012E+02  9.170408012E+02  0.000000000E+00  0.00000E+00  9.000E+00
      25     1     1     2     0     0  6.208740562E+00  8.851313295E+00 -6.213740592E+02  6.339167238E+02  1.250111876E+02  0.00000E+00  9.000E+00
       5     1     1     2   501     0  4.883357785E+00  3.169069788E+00  6.655248753E+00  1.003718200E+01  4.750000000E+00  0.00000E+00  9.000E+00
      -5     1     1     2     0   503  2.729964239E+00 -6.059789811E+00 -2.643487663E+02  2.644749638E+02  4.750000000E+00  0.00000E+00  9.000E+00
      21     1     1     2   512   501 -1.382206259E+01 -5.960593272E+00 -2.086070811E+01  2.572444809E+01  5.331201500E-07  0.00000E+00  9.000E+00
#rwgt            1           9  0.47331435857831977                3      509426           0
</event>
<event>
      6   9999 -3.45752E-01  9.79951E+00 -1.00000E+00  1.88125E-01
      21    -1     0     0   501   511  0.000000000E+00  0.000000000E+00  1.228213176E+01  1.228213176E+01  0.000000000E+00  0.00000E+00  9.000E+00
      21    -1     0     0   502   503  0.000000000E+00  0.000000000E+00 -8.599860135E+02  8.599860135E+02  0.000000000E+00  0.00000E+00  9.000E+00
      25     1     1     2     0     0 -3.851546081E+00  2.651182250E+00 -7.750484167E+02  7.850770501E+02  1.249962525E+02  0.00000E+00  9.000E+00
       5     1     1     2   501     0 -2.654661601E+00  2.866974663E+00  4.938200166E+00  7.887654456E+00  4.750000000E+00  0.00000E+00  9.000E+00
      -5     1     1     2     0   503 -1.596784883E+00 -7.085337312E-03 -4.473023144E+01  4.501006417E+01  4.750000000E+00  0.00000E+00  9.000E+00
      21     1     1     2   502   511  8.102992566E+00 -5.511071576E+00 -3.286343380E+01  3.429337661E+01  0.000000000E+00  0.00000E+00  9.000E+00
#rwgt            1           9  -2.6008784613405889E-005           3      511554           0
</event>
<event>
      6   9999  3.45752E-01  1.16261E+01 -1.00000E+00  1.80555E-01
      21    -1     0     0   501   512  0.000000000E+00  0.000000000E+00  5.000592339E+02  5.000592339E+02  0.000000000E+00  0.00000E+00  9.000E+00
      21    -1     0     0   502   503  0.000000000E+00  0.000000000E+00 -1.127521300E+02  1.127521300E+02  0.000000000E+00  0.00000E+00  9.000E+00
      25     1     1     2     0     0  6.615955292E+00  2.251110221E+01 -7.013266411E+01  1.452395339E+02  1.250016442E+02  0.00000E+00  9.000E+00
       5     1     1     2   501     0 -2.708382805E+00 -5.870222642E+00  4.362813652E+02  4.363551157E+02  4.750000000E+00  0.00000E+00  9.000E+00
      -5     1     1     2     0   503 -7.630490291E+00 -5.626957392E+00  6.243062294E+00  1.230550114E+01  4.750000000E+00  0.00000E+00  9.000E+00
      21     1     1     2   502   512  3.722917804E+00 -1.101392218E+01  1.491534053E+01  1.891121312E+01  1.685873940E-07  0.00000E+00  9.000E+00
#rwgt            1           9   4.3143473970658230E-004           3      513977           0
</event>
<event>
      6   9999  3.45752E-01  7.99230E+00 -1.00000E+00  1.98065E-01
      21    -1     0     0   501   502  0.000000000E+00  0.000000000E+00  1.013993528E+01  1.013993528E+01  0.000000000E+00  0.00000E+00  9.000E+00
       2    -1     0     0   502     0  0.000000000E+00  0.000000000E+00 -4.002108524E+03  4.002108524E+03  0.000000000E+00  0.00000E+00  9.000E+00
      25     1     1     2     0     0 -1.869939921E+00 -3.393226441E+00 -6.803810643E+02  6.917790696E+02  1.249995110E+02  0.00000E+00  9.000E+00
       5     1     1     2   501     0 -1.648179636E+00 -2.461426865E+00  2.209744391E+00  6.018354310E+00  4.750000000E+00  0.00000E+00  9.000E+00
      -5     1     1     2     0   503 -1.343099598E+00 -4.892769825E-01 -1.877966690E+01  1.942374056E+01  4.750000000E+00  0.00000E+00  9.000E+00
       2     1     1     2   503     0  4.861219155E+00  6.343930288E+00 -3.295017602E+03  3.295027295E+03  4.315837288E-05  0.00000E+00  9.000E+00
#rwgt            1           9   1.2453928972411155E-003           3      517321           0
</event>
<event>
      6   9999  3.45752E-01  2.62988E+02 -1.00000E+00  1.04933E-01
       1    -1     0     0   501     0  0.000000000E+00  0.000000000E+00  1.028607148E+02  1.028607148E+02  0.000000000E+00  0.00000E+00  9.000E+00
      21    -1     0     0   511   502  0.000000000E+00  0.000000000E+00 -2.486004200E+03  2.486004200E+03  0.000000000E+00  0.00000E+00  9.000E+00
      25     1     1     2     0     0  8.824890630E+01  2.494759762E+01 -1.474558034E+03  1.482684818E+03  1.249904910E+02  0.00000E+00  9.000E+00
       5     1     1     2   501     0  1.389869906E+02  1.475226416E+01 -3.578890984E+00  1.398941879E+02  4.750000000E+00  0.00000E+00  9.000E+00
      -5     1     1     2     0   502  3.119898017E+01  9.024191355E+00 -3.563262792E+02  3.578348672E+02  4.750000000E+00  0.00000E+00  9.000E+00
       1     1     1     2   511     0 -2.584348771E+02 -4.872405313E+01 -5.486802810E+02  6.084510414E+02  0.000000000E+00  0.00000E+00  9.000E+00
#rwgt            1           2   1.8436682749827727E-004           3      520131           0
</event>
<event>
      6   9999 -3.45752E-01  3.19096E+00 -1.00000E+00  2.70085E-01
      21    -1     0     0   501   512  0.000000000E+00  0.000000000E+00  3.377045523E+02  3.377045523E+02  0.000000000E+00  0.00000E+00  9.000E+00
      21    -1     0     0   502   503  0.000000000E+00  0.000000000E+00 -7.269620960E+02  7.269620960E+02  0.000000000E+00  0.00000E+00  9.000E+00
      25     1     1     2     0     0 -1.278709167E+01 -3.241765488E+00 -5.603616864E+02  5.742856672E+02  1.249991567E+02  0.00000E+00  9.000E+00
       5     1     1     2   501     0  9.161422506E-01  2.501413212E-01 -2.410256238E+00  5.410519609E+00  4.750000000E+00  0.00000E+00  9.000E+00
      -5     1     1     2     0   503  1.505318487E+01  3.227488983E+00 -1.553035530E+02  1.561370268E+02  4.750000000E+00  0.00000E+00  9.000E+00
      21     1     1     2   502   512 -3.182235447E+00 -2.358648158E-01  3.288179519E+02  3.288334347E+02  3.814697266E-06  0.00000E+00  9.000E+00
#rwgt            1           9  -7.1921845880756397E-004           3      521914           0
</event>
<event>
      6   9999  3.45752E-01  5.57688E+00 -1.00000E+00  2.18580E-01
      21    -1     0     0   501   511  0.000000000E+00  0.000000000E+00  5.203465452E+01  5.203465452E+01  0.000000000E+00  0.00000E+00  9.000E+00
      21    -1     0     0   502   503  0.000000000E+00  0.000000000E+00 -1.025536693E+03  1.025536693E+03  0.000000000E+00  0.00000E+00  9.000E+00
      25     1     1     2     0     0  3.570985937E+01 -3.140187728E+01 -1.916279245E+02  2.343850371E+02  1.263084013E+02  0.00000E+00  9.000E+00
       5     1     1     2   501     0  2.066210097E-02 -5.310456746E-01 -2.186902831E+00  5.256184969E+00  4.750000000E+00  0.00000E+00  9.000E+00
      -5     1     1     2     0   503 -3.046214603E+01  3.010375677E+01 -8.079621939E+02  8.091104052E+02  4.750000000E+00  0.00000E+00  9.000E+00
      21     1     1     2   502   511 -5.268375443E+00  1.829166186E+00  2.827498270E+01  2.881972025E+01  1.118282261E-06  0.00000E+00  9.000E+00
#rwgt            1           9   9.6242355847182236E-003           3      528582           0
</event>
<event>
      6   9999 -3.45752E-01  1.76715E+01 -1.00000E+00  1.64425E-01
      21    -1     0     0   501   502  0.000000000E+00  0.000000000E+00  1.609361278E+01  1.609361278E+01  0.000000000E+00  0.00000E+00  9.000E+00
      21    -1     0     0   512   503  0.000000000E+00  0.000000000E+00 -9.044586565E+02  9.044586565E+02  0.000000000E+00  0.00000E+00  9.000E+00
      25     1     1     2     0     0 -1.771733877E+01  7.388537925E+01 -5.150307120E+02  5.354012650E+02  1.249997079E+02  0.00000E+00  9.000E+00
       5     1     1     2   501     0 -1.836174615E-01  4.269627655E-01 -9.057642780E-01  4.857872117E+00  4.750000000E+00  0.00000E+00  9.000E+00
      -5     1     1     2     0   503  1.292181944E+01 -5.735677073E+01 -2.995824984E+02  3.053342569E+02  4.750000000E+00  0.00000E+00  9.000E+00
      21     1     1     2   512   502  4.979136791E+00 -1.695557128E+01 -7.284606900E+01  7.495887518E+01  1.907348633E-06  0.00000E+00  9.000E+00
#rwgt            1           9  -1.0274639125098133E-005           3      533337           0
</event>
<event>
      6   9999  3.45752E-01  1.26532E+01 -1.00000E+00  1.77034E-01
      21    -1     0     0   501   502  0.000000000E+00  0.000000000E+00  2.712604277E+01  2.712604277E+01  0.000000000E+00  0.00000E+00  9.000E+00
      21    -1     0     0   511   503  0.000000000E+00  0.000000000E+00 -1.051531183E+03  1.051531183E+03  0.000000000E+00  0.00000E+00  9.000E+00
      25     1     1     2     0     0  2.150548234E+01  3.400278593E+00 -9.551775579E+02  9.635681814E+02  1.250017019E+02  0.00000E+00  9.000E+00
       5     1     1     2   501     0 -7.750012188E-01  2.435884387E+00  2.080319529E+01  2.149115152E+01  4.750000000E+00  0.00000E+00  9.000E+00
      -5     1     1     2     0   503 -8.389381600E+00 -8.629198154E+00 -4.498760255E+01  4.681123441E+01  4.750000000E+00  0.00000E+00  9.000E+00
      21     1     1     2   511   502 -1.234109952E+01  2.793035174E+00 -4.504317463E+01  4.678665797E+01  4.768371582E-07  0.00000E+00  9.000E+00
#rwgt            1           9   7.1702879681983546E-005           3      535010           0
</event>
<event>
      6   9999  3.45752E-01  2.75144E+00 -1.00000E+00  2.87119E-01
      21    -1     0     0   502   503  0.000000000E+00  0.000000000E+00  1.421704959E+00  1.421704959E+00  0.000000000E+00  0.00000E+00  9.000E+00
       2    -1     0     0   501     0  0.000000000E+00  0.000000000E+00 -4.376513704E+03  4.376513704E+03  0.000000000E+00  0.00000E+00  9.000E+00
      25     1     1     2     0     0  2.099193472E+00  4.775730443E+00 -3.321019632E+03  3.323375652E+03  1.250084637E+02  0.00000E+00  9.000E+00
       5     1     1     2   501     0 -6.376431008E-02 -1.157970929E-01 -4.873755447E+01  4.896865519E+01  4.750000000E+00  0.00000E+00  9.000E+00
      -5     1     1     2     0   503 -2.716078204E+00 -1.994015374E+00 -6.709898651E+01  6.735124103E+01  4.750000000E+00  0.00000E+00  9.000E+00
       2     1     1     2   502     0  6.806490420E-01 -2.665917976E+00 -9.382358261E+02  9.382398605E+02  1.525878906E-05  0.00000E+00  9.000E+00
#rwgt            1           9   2.1359863446242026E-005           3      537663           0
</event>
<event>
      6   9999  3.45752E-01  1.26934E+01 -1.00000E+00  1.76905E-01
      21    -1     0     0   501   502  0.000000000E+00  0.000000000E+00  8.451221764E+01  8.451221764E+01  0.000000000E+00  0.00000E+00  9.000E+00
      21    -1     0     0   502   511  0.000000000E+00  0.000000000E+00 -3.652393859E+02  3.652393859E+02  0.000000000E+00  0.00000E+00  9.000E+00
      25     1     1     2     0     0 -1.134658908E+01  1.455777427E+01 -2.906867114E+02  3.169586069E+02  1.249932815E+02  0.00000E+00  9.000E+00
       5     1     1     2   501     0  1.941735976E+00 -1.570622597E-01  6.869140122E+01  6.888298853E+01  4.750000000E+00  0.00000E+00  9.000E+00
      -5     1     1     2     0   503  5.831877221E-01 -5.273816579E+00 -5.005750783E+00  8.704785473E+00  4.750000000E+00  0.00000E+00  9.000E+00
      21     1     1     2   503   511  8.821665386E+00 -9.126895432E+00 -5.372610728E+01  5.520522262E+01  0.000000000E+00  0.00000E+00  9.000E+00
#rwgt            1           9   2.4913927039106474E-004           3      543244           0
</event>
<event>
      6   9999 -3.45752E-01  3.47464E+01 -1.00000E+00  1.43827E-01
      21    -1     0     0   501   502  0.000000000E+00  0.000000000E+00  2.026320685E+01  2.026320685E+01  0.000000000E+00  0.00000E+00  9.000E+00
       2    -1     0     0   502     0  0.000000000E+00  0.000000000E+00 -1.615785233E+03  1.615785233E+03  0.000000000E+00  0.00000E+00  9.000E+00
      25     1     1     2     0     0 -5.166051697E+01 -2.195321786E+01 -7.567823586E+02  7.690867379E+02  1.249964771E+02  0.00000E+00  9.000E+00
       5     1     1     2   501     0  3.923025104E+01  2.850131531E+00 -2.706880943E+01  4.798352624E+01  4.750000000E+00  0.00000E+00  9.000E+00
      -5     1     1     2     0   503  3.529404765E+01 -7.061043439E+00 -9.877220243E+01  1.052332581E+02  4.750000000E+00  0.00000E+00  9.000E+00
       2     1     1     2   503     0 -2.286378172E+01  2.616412977E+01 -7.128986555E+02  7.137449175E+02  7.629394531E-06  0.00000E+00  9.000E+00
#rwgt            1           9  -6.8959454502110146E-004           3      546149           0
</event>
<event>
      6   9999  3.45752E-01  3.73490E+00 -1.00000E+00  2.54180E-01
      21    -1     0     0   511   502  0.000000000E+00  0.000000000E+00  5.566174312E+02  5.566174312E+02  0.000000000E+00  0.00000E+00  9.000E+00
      21    -1     0     0   502   503  0.000000000E+00  0.000000000E+00 -1.193204595E+01  1.193204595E+01  0.000000000E+00  0.00000E+00  9.000E+00
      25     1     1     2     0     0  3.251722617E+00  1.317406050E+00  3.297385487E+02  3.526542551E+02  1.250008155E+02  0.00000E+00  9.000E+00
       5     1     1     2   501     0  3.329739827E-01 -4.332301980E-01  4.636786262E+01  4.661372914E+01  4.750000000E+00  0.00000E+00  9.000E+00
      -5     1     1     2     0   503 -3.896924399E-02 -2.057769459E+00  2.011194630E+01  2.076749425E+01  4.750000000E+00  0.00000E+00  9.000E+00
      21     1     1     2   511   501 -3.545727356E+00  1.173593607E+00  1.484670276E+02  1.485139987E+02  2.697398305E-06  0.00000E+00  9.000E+00
#rwgt            1           9   1.3674322924052825E-003           3      547256           0
</event>
<event>
      6   9999  3.45752E-01  2.30692E+01 -1.00000E+00  1.55618E-01
      21    -1     0     0   512   502  0.000000000E+00  0.000000000E+00  1.021715351E+02  1.021715351E+02  0.000000000E+00  0.00000E+00  9.000E+00
      21    -1     0     0   502   503  0.000000000E+00  0.000000000E+00 -7.942191816E+02  7.942191816E+02  0.000000000E+00  0.00000E+00  9.000E+00
      25     1     1     2     0     0  7.341882844E+01 -1.057590790E+01 -7.199606874E+02  7.344865843E+02  1.249999080E+02  0.00000E+00  9.000E+00
       5     1     1     2   501     0  1.123499310E+00  3.010282407E+00  5.805589741E+01  5.833844166E+01  4.750000000E+00  0.00000E+00  9.000E+00
      -5     1     1     2     0   503 -6.439416955E+01 -1.315156600E+01 -4.147768879E+01  7.786227538E+01  4.750000000E+00  0.00000E+00  9.000E+00
      21     1     1     2   512   501 -1.014815820E+01  2.071719149E+01  1.133483226E+01  2.570341535E+01  4.460403188E-07  0.00000E+00  9.000E+00
#rwgt            1           9  0.18367891413358034                3      551665           0
</event>
<event>
      6   9999  3.45752E-01  1.19313E+01 -1.00000E+00  1.79462E-01
      -1    -1     0     0     0   502  0.000000000E+00  0.000000000E+00  5.757617293E+01  5.757617293E+01  0.000000000E+00  0.00000E+00  9.000E+00
      21    -1     0     0   502   503  0.000000000E+00  0.000000000E+00 -8.167716058E+02  8.167716058E+02  0.000000000E+00  0.00000E+00  9.000E+00
      25     1     1     2     0     0  1.788371478E+01  2.689624281E+01 -7.468845300E+02  7.579597431E+02  1.249929431E+02  0.00000E+00  9.000E+00
       5     1     1     2   501     0 -1.716358650E+01 -1.726462392E+00 -1.367756989E+01  2.252127421E+01  4.750000000E+00  0.00000E+00  9.000E+00
      -5     1     1     2     0   503 -2.945906762E+00 -1.344791138E+01 -4.431815603E+01  4.664961029E+01  4.750000000E+00  0.00000E+00  9.000E+00
      -1     1     1     2     0   501  2.225778482E+00 -1.172186904E+01  4.568482306E+01  4.721715114E+01  1.651812370E-06  0.00000E+00  9.000E+00
#rwgt            1           9   1.1090942173644965E-004           3      553832           0
</event>
<event>
      6   9999  3.45752E-01  2.55625E+00 -1.00000E+00  2.96455E-01
      21    -1     0     0   502   511  0.000000000E+00  0.000000000E+00  8.871314337E+00  8.871314337E+00  0.000000000E+00  0.00000E+00  9.000E+00
      21    -1     0     0   501   502  0.000000000E+00  0.000000000E+00 -7.514022966E+02  7.514022966E+02  0.000000000E+00  0.00000E+00  9.000E+00
      25     1     1     2     0     0  2.546070002E+01 -7.896063201E+00 -6.090617320E+02  6.223277461E+02  1.250001406E+02  0.00000E+00  9.000E+00
       5     1     1     2   501     0 -1.841938084E+01  5.291764890E+00 -1.117698552E+02  1.135003938E+02  4.750000000E+00  0.00000E+00  9.000E+00
      -5     1     1     2     0   503 -4.767869721E+00  1.435611937E+00 -2.049546291E+01  2.161989971E+01  4.750000000E+00  0.00000E+00  9.000E+00
      21     1     1     2   503   511 -2.273449465E+00  1.168686374E+00 -1.203932092E+00  2.825571233E+00  6.143906155E-08  0.00000E+00  9.000E+00
#rwgt            1           9   2.1435029247774171                3      556143           0
</event>
<event>
      6   9999 -3.45752E-01  3.91631E+01 -1.00000E+00  1.40721E-01
      21    -1     0     0   501   512  0.000000000E+00  0.000000000E+00  3.277391560E+01  3.277391560E+01  0.000000000E+00  0.00000E+00  9.000E+00
      21    -1     0     0   502   503  0.000000000E+00  0.000000000E+00 -4.314876794E+03  4.314876794E+03  0.000000000E+00  0.00000E+00  9.000E+00
      25     1     1     2     0     0 -5.209857667E+01 -2.592707413E+00 -1.294266705E+03  1.301334969E+03  1.250016555E+02  0.00000E+00  9.000E+00
       5     1     1     2   501     0  5.663417054E+01 -1.040011654E+01 -2.260061295E+03  2.260799684E+03  4.750000000E+00  0.00000E+00  9.000E+00
      -5     1     1     2     0   503  6.298300896E+00 -2.464191244E+01 -7.430346706E+02  7.434850211E+02  4.750000000E+00  0.00000E+00  9.000E+00
      21     1     1     2   502   512 -1.083389476E+01  3.763473640E+01  1.525979242E+01  4.203103525E+01  1.526623782E-06  0.00000E+00  9.000E+00
#rwgt            1           9  -1.8630906608634965E-003           3      562011           0
</event>
<event>
      6   9999 -3.45752E-01  1.51020E+02 -1.00000E+00  1.13288E-01
      21    -1     0     0   501   502  0.000000000E+00  0.000000000E+00  8.251465688E+01  8.251465688E+01  0.000000000E+00  0.00000E+00  9.000E+00
      21    -1     0     0   502   511  0.000000000E+00  0.000000000E+00 -2.322269895E+03  2.322269895E+03  0.000000000E+00  0.00000E+00  9.000E+00
      25     1     1     2     0     0 -3.981154688E+01  1.917905537E+02 -1.396037216E+03  1.415243056E+03  1.249976933E+02  0.00000E+00  9.000E+00
       5     1     1     2   501     0  5.605793737E+01 -1.487227181E+00 -2.749876974E+01  6.263744108E+01  4.750000000E+00  0.00000E+00  9.000E+00
      -5     1     1     2     0   503  9.888478026E+01 -9.256968151E+01 -4.769588861E+01  1.436830052E+02  4.750000000E+00  0.00000E+00  9.000E+00
      21     1     1     2   503   511 -1.151311707E+02 -9.773364500E+01 -7.685233638E+02  7.832210496E+02  0.000000000E+00  0.00000E+00  9.000E+00
#rwgt            1           9  -7.1780819434689828E-004           3      562888           0
</event>
<event>
      6   9999  3.45752E-01  1.98290E+01 -1.00000E+00  1.60496E-01
      21    -1     0     0   501   502  0.000000000E+00  0.000000000E+00  3.631024678E+01  3.631024678E+01  0.000000000E+00  0.00000E+00  9.000E+00
      21    -1     0     0   512   503  0.000000000E+00  0.000000000E+00 -1.342766564E+03  1.342766564E+03  0.000000000E+00  0.00000E+00  9.000E+00
      25     1     1     2     0     0 -3.733453326E+01  1.259417991E+02 -5.564119751E+02  5.852132468E+02  1.250002163E+02  0.00000E+00  9.000E+00
       5     1     1     2   501     0 -6.513268303E+00  6.488345844E+00  1.345808844E+01  1.697657033E+01  4.750000000E+00  0.00000E+00  9.000E+00
      -5     1     1     2     0   503  2.974318698E+01 -1.184928883E+02 -6.120295665E+02  6.241217626E+02  4.750000000E+00  0.00000E+00  9.000E+00
      21     1     1     2   512   502  1.410461458E+01 -1.393725666E+01 -1.514728644E+02  1.527652314E+02  1.907348633E-06  0.00000E+00  9.000E+00
#rwgt            1           9   1.7832432806881748E-002           3      563655           0
</event>
<event>
      6   9999  3.45752E-01  2.56786E+01 -1.00000E+00  1.52345E-01
      21    -1     0     0   501   502  0.000000000E+00  0.000000000E+00  1.039903390E+02  1.039903390E+02  0.000000000E+00  0.00000E+00  9.000E+00
       1    -1     0     0   502     0  0.000000000E+00  0.000000000E+00 -2.092309161E+03  2.092309161E+03  0.000000000E+00  0.00000E+00  9.000E+00
      25     1     1     2     0     0 -5.968911669E+00  3.021197592E+00 -1.302844494E+03  1.308842214E+03  1.249776363E+02  0.00000E+00  9.000E+00
       5     1     1     2   501     0 -6.976929437E+00 -3.009908840E+00  1.001044824E+02  1.005047611E+02  4.750000000E+00  0.00000E+00  9.000E+00
      -5     1     1     2     0   503 -3.343736590E+00  1.983913165E+01 -3.795399013E+02  3.801024479E+02  4.750000000E+00  0.00000E+00  9.000E+00
       1     1     1     2   503     0  1.628957770E+01 -1.985042040E+01 -4.060389084E+02  4.068500764E+02  9.344061824E-06  0.00000E+00  9.000E+00
#rwgt            1           9   1.5980597192132915E-004           3      566197           0
</event>
<event>
      6   9999  3.45752E-01  9.13361E+00 -1.00000E+00  1.91437E-01
      21    -1     0     0   501   502  0.000000000E+00  0.000000000E+00  3.880640220E+01  3.880640220E+01  0.000000000E+00  0.00000E+00  9.000E+00
      21    -1     0     0   511   503  0.000000000E+00  0.000000000E+00 -1.935065413E+03  1.935065413E+03  0.000000000E+00  0.00000E+00  9.000E+00
      25     1     1     2     0     0  1.917784549E+01 -9.520130641E+00 -2.464280760E+02  2.771470830E+02  1.250011452E+02  0.00000E+00  9.000E+00
       5     1     1     2   501     0 -5.240775581E-01  5.413020191E+00  2.266896364E+01  2.379117184E+01  4.750000000E+00  0.00000E+00  9.000E+00
      -5     1     1     2     0   503 -2.369400459E+01  1.172411892E+01 -9.617714419E+02  9.621464180E+02  4.750000000E+00  0.00000E+00  9.000E+00
      21     1     1     2   511   502  5.040236658E+00 -7.617008473E+00 -7.107284564E+02  7.107871422E+02  1.078959322E-05  0.00000E+00  9.000E+00
#rwgt            1           9   4.1888741126080964E-004           3      568982           0
</event>
<event>
      6   9999 -3.45752E-01  1.02179E+01 -1.00000E+00  1.86213E-01
      21    -1     0     0   501   502  0.000000000E+00  0.000000000E+00  6.062430160E+02  6.062430160E+02  0.000000000E+00  0.00000E+00  9.000E+00
      21    -1     0     0   512   503  0.000000000E+00  0.000000000E+00 -1.675421225E+01  1.675421225E+01  0.000000000E+00  0.00000E+00  9.000E+00
      25     1     1     2     0     0 -1.763339766E+01 -1.465484874E+01  4.735238900E+02  4.902809965E+02  1.249995195E+02  0.00000E+00  9.000E+00
       5     1     1     2   501     0  4.212072166E-01 -7.695257993E-01  8.753267175E+01  8.766584688E+01  4.750000000E+00  0.00000E+00  9.000E+00
      -5     1     1     2     0   503  2.287681412E+01  6.920388366E+00  2.285772936E+01  3.341075711E+01  4.750000000E+00  0.00000E+00  9.000E+00
      21     1     1     2   512   502 -5.664623677E+00  8.503986170E+00  5.574512690E+00  1.163962774E+01  1.032382731E-07  0.00000E+00  9.000E+00
#rwgt            1           9  -1.5388920299728499                3      572577           0
</event>
<event>
      6   9999 -3.45752E-01  1.01008E+01 -1.00000E+00  1.86736E-01
       2    -1     0     0   501     0  0.000000000E+00  0.000000000E+00  2.769213137E+03  2.769213137E+03  0.000000000E+00  0.00000E+00  9.000E+00
      21    -1     0     0   502   503  0.000000000E+00  0.000000000E+00 -1.057852043E+01  1.057852043E+01  0.000000000E+00  0.00000E+00  9.000E+00
      25     1     1     2     0     0  8.891520033E+00 -3.985689116E+01  4.295677876E+02  4.492381041E+02  1.249750341E+02  0.00000E+00  9.000E+00
       5     1     1     2   501     0 -1.768748912E+00  2.170510669E+00  7.779832101E+02  7.780027489E+02  4.750000000E+00  0.00000E+00  9.000E+00
      -5     1     1     2     0   503 -1.623607985E+01  3.333042143E+01  4.915565394E+02  4.929755787E+02  4.750000000E+00  0.00000E+00  9.000E+00
       2     1     1     2   502     0  9.113308733E+00  4.355959061E+00  1.059527080E+03  1.059575226E+03  1.525878906E-05  0.00000E+00  9.000E+00
#rwgt            1           9  -2.1921798621026765E-004           3      575131           0
</event>
<event>
      6   9999  3.45752E-01  1.17306E+01 -1.00000E+00  1.80176E-01
      21    -1     0     0   501   511  0.000000000E+00  0.000000000E+00  2.861316848E+01  2.861316848E+01  0.000000000E+00  0.00000E+00  9.000E+00
      21    -1     0     0   502   503  0.000000000E+00  0.000000000E+00 -1.101772507E+03  1.101772507E+03  0.000000000E+00  0.00000E+00  9.000E+00
      25     1     1     2     0     0  2.698142521E+01  3.503389547E+01 -8.945445118E+02  9.043127104E+02  1.249648893E+02  0.00000E+00  9.000E+00
       5     1     1     2   501     0  5.490520844E+00 -5.708626235E+00  1.807154854E+01  2.029476778E+01  4.750000000E+00  0.00000E+00  9.000E+00
      -5     1     1     2     0   503 -2.328198802E+01 -3.661571018E+01 -1.810105038E+02  1.861991573E+02  4.750000000E+00  0.00000E+00  9.000E+00
      21     1     1     2   502   511 -9.189958034E+00  7.290440948E+00 -1.567587136E+01  1.957903984E+01  2.384185791E-07  0.00000E+00  9.000E+00
#rwgt            1           9   2.6005370593476621E-004           3      577955           0
</event>
<event>
      6   9999  3.45752E-01  3.69106E+01 -1.00000E+00  1.42241E-01
      21    -1     0     0   501   502  0.000000000E+00  0.000000000E+00  1.224973970E+03  1.224973970E+03  0.000000000E+00  0.00000E+00  9.000E+00
      21    -1     0     0   512   503  0.000000000E+00  0.000000000E+00 -6.511241284E+01  6.511241284E+01  0.000000000E+00  0.00000E+00  9.000E+00
      25     1     1     2     0     0 -1.188024084E+02  8.181886020E+01  8.321794154E+02  8.537667249E+02  1.248467181E+02  0.00000E+00  9.000E+00
       5     1     1     2   501     0 -2.498875884E+00  6.464882843E-01  2.686951628E+02  2.687495401E+02  4.750000000E+00  0.00000E+00  9.000E+00
      -5     1     1     2     0   503  8.845928003E+01 -6.561909081E+01  1.680025482E+01  1.115155611E+02  4.750000000E+00  0.00000E+00  9.000E+00
      21     1     1     2   512   502  3.284200421E+01 -1.684625767E+01  4.218672431E+01  5.605455687E+01  4.768371582E-07  0.00000E+00  9.000E+00
#rwgt            1           9   197.54579151809978                3      580821           0
</event>
<event>
      6   9999  3.45752E-01  1.00462E+01 -1.00000E+00  1.86983E-01
      -2    -1     0     0     0   502  0.000000000E+00  0.000000000E+00  3.092321916E+01  3.092321916E+01  0.000000000E+00  0.00000E+00  9.000E+00
       2    -1     0     0   511     0  0.000000000E+00  0.000000000E+00 -1.186562986E+03  1.186562986E+03  0.000000000E+00  0.00000E+00  9.000E+00
      25     1     1     2     0     0  1.072867726E+01 -3.423902520E+01 -1.475087566E+02  1.966447117E+02  1.249915756E+02  0.00000E+00  9.000E+00
       5     1     1     2   501     0  4.908776082E+01  5.705257749E+01 -5.449047908E+02  5.500985351E+02  4.750000000E+00  0.00000E+00  9.000E+00
      -5     1     1     2     0   502 -6.751389688E+01 -2.926916021E+01 -4.089898040E+02  4.155839654E+02  4.750000000E+00  0.00000E+00  9.000E+00
      21     1     1     2   511   501  7.697458799E+00  6.455607914E+00 -5.423641504E+01  5.515899257E+01  6.743495762E-07  0.00000E+00  9.000E+00
#rwgt            1           3   7.1076461074656564E-004           3      582935           0
</event>
<event>
      6   9999  3.45752E-01  2.50795E+00 -1.00000E+00  2.98981E-01
      21    -1     0     0   512   502  0.000000000E+00  0.000000000E+00  3.542216554E+01  3.542216554E+01  0.000000000E+00  0.00000E+00  9.000E+00
      21    -1     0     0   502   503  0.000000000E+00  0.000000000E+00 -7.544909930E+02  7.544909930E+02  0.000000000E+00  0.00000E+00  9.000E+00
      25     1     1     2     0     0  7.335953141E+00 -8.770320072E+00 -5.498095742E+02  5.639558099E+02  1.249994120E+02  0.00000E+00  9.000E+00
       5     1     1     2   501     0 -3.289024989E-01 -2.732543637E-01 -1.971904449E+00  5.160789858E+00  4.750000000E+00  0.00000E+00  9.000E+00
      -5     1     1     2     0   503 -4.592092898E+00  8.366972797E+00 -1.938363802E+02  1.941293340E+02  4.750000000E+00  0.00000E+00  9.000E+00
      21     1     1     2   512   501 -2.414957744E+00  6.766016396E-01  2.654903132E+01  2.666722473E+01  6.743495762E-07  0.00000E+00  9.000E+00
#rwgt            1           9   4.4688247508830817E-004           3      589398           0
</event>
<event>
      6   9999  3.45752E-01  1.47890E+01 -1.00000E+00  1.70906E-01
      21    -1     0     0   501   511  0.000000000E+00  0.000000000E+00  1.054275325E+03  1.054275325E+03  0.000000000E+00  0.00000E+00  9.000E+00
      21    -1     0     0   502   503  0.000000000E+00  0.000000000E+00 -2.231512426E+01  2.231512426E+01  0.000000000E+00  0.00000E+00  9.000E+00
      25     1     1     2     0     0 -3.145403256E+01  1.950894488E+01  2.312424571E+02  2.654578726E+02  1.249994123E+02  0.00000E+00  9.000E+00
       5     1     1     2   501     0  2.926703263E+00 -8.638462105E-01  6.579000523E+02  6.579242761E+02  4.750000000E+00  0.00000E+00  9.000E+00
      -5     1     1     2     0   503  3.726746905E+01 -6.715077955E+00  7.949412349E+01  8.818069342E+01  4.750000000E+00  0.00000E+00  9.000E+00
      21     1     1     2   502   511 -8.740139755E+00 -1.193002072E+01  6.332356753E+01  6.502760677E+01  0.000000000E+00  0.00000E+00  9.000E+00
#rwgt            1           9   1.0013894535300498E-003           3      596183           0
</event>
<event>
      6   9999 -3.45752E-01  7.89441E+00 -1.00000E+00  1.98701E-01
      21    -1     0     0   512   502  0.000000000E+00  0.000000000E+00  2.124536092E+01  2.124536092E+01  0.000000000E+00  0.00000E+00  9.000E+00
      21    -1     0     0   502   503  0.000000000E+00  0.000000000E+00 -9.381565985E+02  9.381565985E+02  0.000000000E+00  0.00000E+00  9.000E+00
      25     1     1     2     0     0  6.503057765E+00  1.148192436E+00 -9.286683674E+02  9.370658317E+02  1.249953128E+02  0.00000E+00  9.000E+00
       5     1     1     2   501     0  1.844442698E-01 -1.840421468E+00  3.108780410E+00  5.970610229E+00  4.750000000E+00  0.00000E+00  9.000E+00
      -5     1     1     2     0   503  4.561104267E-01 -2.667895450E+00  5.806479113E+00  7.975174139E+00  4.750000000E+00  0.00000E+00  9.000E+00
      21     1     1     2   512   501 -7.143612461E+00  3.360124482E+00  2.841870274E+00  8.390343389E+00  0.000000000E+00  0.00000E+00  9.000E+00
#rwgt            1           9  -1.1066978018665795E-004           3      598275           0
</event>
<event>
      6   9999  3.45752E-01  6.82658E+00 -1.00000E+00  2.06537E-01
      21    -1     0     0   501   502  0.000000000E+00  0.000000000E+00  6.573485590E+02  6.573485590E+02  0.000000000E+00  0.00000E+00  9.000E+00
      21    -1     0     0   502   511  0.000000000E+00  0.000000000E+00 -3.325000327E+02  3.325000327E+02  0.000000000E+00  0.00000E+00  9.000E+00
      25     1     1     2     0     0  5.509329191E+01 -8.302426782E+01 -2.315232524E+01  1.615538544E+02  1.250412646E+02  0.00000E+00  9.000E+00
       5     1     1     2   501     0 -1.348935475E+00 -4.745248185E+00  3.198312758E+02  3.199045866E+02  4.750000000E+00  0.00000E+00  9.000E+00
      -5     1     1     2     0   503 -5.278515118E+01  9.452837503E+01  2.572827360E+02  2.791753116E+02  4.750000000E+00  0.00000E+00  9.000E+00
      21     1     1     2   503   511 -9.592052612E-01 -6.758859022E+00 -2.291131603E+02  2.292148391E+02  4.672030912E-06  0.00000E+00  9.000E+00
#rwgt            1           9   1.4435116022868913E-003           3      601652           0
</event>
<event>
      6   9999 -3.45752E-01  4.33566E+01 -1.00000E+00  1.38186E-01
      21    -1     0     0   502   512  0.000000000E+00  0.000000000E+00  2.018158729E+02  2.018158729E+02  0.000000000E+00  0.00000E+00  9.000E+00
      21    -1     0     0   501   502  0.000000000E+00  0.000000000E+00 -1.440390002E+02  1.440390002E+02  0.000000000E+00  0.00000E+00  9.000E+00
      25     1     1     2     0     0  1.544142616E+01 -4.344195962E+01  1.357627481E+02  1.902192842E+02  1.250048431E+02  0.00000E+00  9.000E+00
       5     1     1     2   501     0 -5.189766381E-01 -2.107977204E-02 -9.968233699E+01  9.979679648E+01  4.750000000E+00  0.00000E+00  9.000E+00
      -5     1     1     2     0   503  3.697310414E+00  4.308202511E+00  1.040628632E-01  7.402975230E+00  4.750000000E+00  0.00000E+00  9.000E+00
      21     1     1     2   503   512 -1.861975994E+01  3.915483689E+01  2.159239870E+01  4.843581726E+01  9.233911863E-07  0.00000E+00  9.000E+00
#rwgt            1           9  -7426.3011283389496                3      606354           0
</event>
<event>
      6   9999  3.45752E-01  7.18240E+00 -1.00000E+00  2.03725E-01
      21    -1     0     0   501   511  0.000000000E+00  0.000000000E+00  1.115989798E+02  1.115989798E+02  0.000000000E+00  0.00000E+00  9.000E+00
      21    -1     0     0   502   503  0.000000000E+00  0.000000000E+00 -1.101002170E+03  1.101002170E+03  0.000000000E+00  0.00000E+00  9.000E+00
      25     1     1     2     0     0  4.228929768E+01 -5.352737174E+01 -6.342571647E+02  6.500467042E+02  1.250000099E+02  0.00000E+00  9.000E+00
       5     1     1     2   501     0  4.306584581E+00  4.663672794E+00  1.713065551E+01  1.887639724E+01  4.750000000E+00  0.00000E+00  9.000E+00
      -5     1     1     2     0   503 -3.945997298E+01  4.967959174E+01 -4.556125893E+02  4.600332002E+02  4.750000000E+00  0.00000E+00  9.000E+00
      21     1     1     2   502   511 -7.135909282E+00 -8.158927913E-01  8.333590866E+01  8.364484775E+01  3.015782986E-06  0.00000E+00  9.000E+00
#rwgt            1           9   2.3886792226369539E-003           3      607435           0
</event>
<event>
      6   9999  3.45752E-01  1.30492E+01 -1.00000E+00  1.75788E-01
      21    -1     0     0   501   512  0.000000000E+00  0.000000000E+00  5.132712287E+01  5.132712287E+01  0.000000000E+00  0.00000E+00  9.000E+00
      21    -1     0     0   502   503  0.000000000E+00  0.000000000E+00 -1.285475179E+03  1.285475179E+03  0.000000000E+00  0.00000E+00  9.000E+00
      25     1     1     2     0     0  6.750996120E+01 -5.454604194E+00 -1.447310323E+02  2.028783530E+02  1.250008273E+02  0.00000E+00  9.000E+00
       5     1     1     2   501     0  7.281711134E-01  1.296240178E+00  1.428238681E+01  1.512479900E+01  4.750000000E+00  0.00000E+00  9.000E+00
      -5     1     1     2     0   503 -5.520191709E+01  3.576135516E+00 -1.104339456E+03  1.105734253E+03  4.750000000E+00  0.00000E+00  9.000E+00
      21     1     1     2   502   512 -1.303621522E+01  5.822284999E-01  6.400449922E-01  1.306489781E+01  3.542749115E-07  0.00000E+00  9.000E+00
#rwgt            1           9   1.0140613245718548E-003           3      611668           0
</event>
<event>
      6   9999  3.45752E-01  5.98539E+00 -1.00000E+00  2.14205E-01
      21    -1     0     0   502   511  0.000000000E+00  0.000000000E+00  3.937252737E+02  3.937252737E+02  0.000000000E+00  0.00000E+00  9.000E+00
      21    -1     0     0   501   502  0.000000000E+00  0.000000000E+00 -7.271929034E+02  7.271929034E+02  0.000000000E+00  0.00000E+00  9.000E+00
      25     1     1     2     0     0 -1.042134283E+00  1.038250743E+01 -5.163913078E+02  5.314090898E+02  1.250070218E+02  0.00000E+00  9.000E+00
       5     1     1     2   501     0  3.673263635E+00 -5.284112858E+00 -1.789733741E+02  1.791520188E+02  4.750000000E+00  0.00000E+00  9.000E+00
      -5     1     1     2     0   503  2.867494396E-01  1.275892347E-01 -2.397276352E+01  2.444083458E+01  4.750000000E+00  0.00000E+00  9.000E+00
      21     1     1     2   503   511 -2.917878792E+00 -5.225983810E+00  3.858698157E+02  3.859162339E+02  7.629394531E-06  0.00000E+00  9.000E+00
#rwgt            1           9   1.5444492538660222E-003           3      614924           0
</event>
<event>
      6   9999  3.45752E-01  1.94209E+01 -1.00000E+00  1.61190E-01
      21    -1     0     0   501   512  0.000000000E+00  0.000000000E+00  1.032171906E+02  1.032171906E+02  0.000000000E+00  0.00000E+00  9.000E+00
      21    -1     0     0   502   503  0.000000000E+00  0.000000000E+00 -9.643461539E+02  9.643461539E+02  0.000000000E+00  0.00000E+00  9.000E+00
      25     1     1     2     0     0  7.757736257E-01 -6.817666807E+00 -9.217549704E+02  9.302149195E+02  1.249819530E+02  0.00000E+00  9.000E+00
       5     1     1     2   501     0  6.387856985E+00 -1.134089330E+01  1.050423009E+01  1.738740715E+01  4.750000000E+00  0.00000E+00  9.000E+00
      -5     1     1     2     0   503 -1.133951026E+00 -3.026401654E-01 -3.363148934E+01  3.398554121E+01  4.750000000E+00  0.00000E+00  9.000E+00
      21     1     1     2   502   512 -6.029679585E+00  1.846120027E+01  8.375326634E+01  8.597547658E+01  3.015782986E-06  0.00000E+00  9.000E+00
#rwgt            1           9   3.3490770570350508E-004           3      617805           0
</event>
<event>
      6   9999 -3.45752E-01  3.93046E+01 -1.00000E+00  1.40629E-01
      21    -1     0     0   511   502  0.000000000E+00  0.000000000E+00  2.225383338E+01  2.225383338E+01  0.000000000E+00  0.00000E+00  9.000E+00
      21    -1     0     0   502   503  0.000000000E+00  0.000000000E+00 -8.865047141E+02  8.865047141E+02  0.000000000E+00  0.00000E+00  9.000E+00
      25     1     1     2     0     0  2.324368824E+01 -1.614699988E+01 -8.009114945E+02  8.111011016E+02  1.249991210E+02  0.00000E+00  9.000E+00
       5     1     1     2   501     0  8.322241651E+00 -5.869573136E+00 -4.667509047E+00  1.216797993E+01  4.750000000E+00  0.00000E+00  9.000E+00
      -5     1     1     2     0   503  2.047644285E-01 -1.123765306E+00 -4.283750762E+01  4.311518684E+01  4.750000000E+00  0.00000E+00  9.000E+00
      21     1     1     2   511   501 -3.177069432E+01  2.314033832E+01 -1.583436955E+01  4.237427916E+01  1.634515429E-06  0.00000E+00  9.000E+00
#rwgt            1           9  -2.6688921177125428E-003           3      619739           0
</event>
<event>
      6   9999 -3.45752E-01  3.49807E+01 -1.00000E+00  1.43649E-01
      21    -1     0     0   501   512  0.000000000E+00  0.000000000E+00  1.415529181E+01  1.415529181E+01  0.000000000E+00  0.00000E+00  9.000E+00
      21    -1     0     0   502   503  0.000000000E+00  0.000000000E+00 -9.132494316E+02  9.132494316E+02  0.000000000E+00  0.00000E+00  9.000E+00
      25     1     1     2     0     0  2.862083605E+01  3.148574258E+01 -7.127550076E+02  7.248832549E+02  1.250021124E+02  0.00000E+00  9.000E+00
       5     1     1     2   501     0  2.359065250E+00  6.492194952E+00 -7.218906108E-01  8.414119692E+00  4.750000000E+00  0.00000E+00  9.000E+00
      -5     1     1     2     0   503 -1.118399416E+01 -9.137491848E+00 -1.067940112E+02  1.078707505E+02  4.750000000E+00  0.00000E+00  9.000E+00
      21     1     1     2   502   512 -1.979590714E+01 -2.884044568E+01 -7.882323039E+01  8.623659835E+01  9.536743164E-07  0.00000E+00  9.000E+00
#rwgt            1           9  -3.2505859423932505E-003           3      620830           0
</event>
<event>
      6   9999  3.45752E-01  1.08416E+01 -1.00000E+00  1.83571E-01
      21    -1     0     0   501   502  0.000000000E+00  0.000000000E+00  7.765432739E+01  7.765432739E+01  0.000000000E+00  0.00000E+00  9.000E+00
      21    -1     0     0   502   511  0.000000000E+00  0.000000000E+00 -2.614997563E+02  2.614997563E+02  0.000000000E+00  0.00000E+00  9.000E+00
      25     1     1     2     0     0  8.429518416E+01 -4.015835680E+01 -5.260689224E+01  1.646541402E+02  1.250005163E+02  0.00000E+00  9.000E+00
       5     1     1     2   501     0 -2.817644482E+01  4.901235030E+01 -5.908772804E+01  8.191486208E+01  4.750000000E+00  0.00000E+00  9.000E+00
      -5     1     1     2     0   503 -4.617563554E+01 -4.532413970E+00 -5.317933524E+01  7.073426532E+01  4.750000000E+00  0.00000E+00  9.000E+00
      21     1     1     2   503   511 -9.943103799E+00 -4.321579536E+00 -1.897147336E+01  2.185081610E+01  2.384185791E-07  0.00000E+00  9.000E+00
#rwgt            1           9   8.7206197544469316E-002           3      621715           0
</event>
<event>
      6   9999  3.45752E-01  2.32011E+01 -1.00000E+00  1.55440E-01
      21    -1     0     0   501   502  0.000000000E+00  0.000000000E+00  4.273116167E+01  4.273116167E+01  0.000000000E+00  0.00000E+00  9.000E+00
      21    -1     0     0   502   512  0.000000000E+00  0.000000000E+00 -1.466417555E+03  1.466417555E+03  0.000000000E+00  0.00000E+00  9.000E+00
      25     1     1     2     0     0  1.515993093E+01 -1.230267312E+01 -5.678593146E+02  5.817831139E+02  1.250048447E+02  0.00000E+00  9.000E+00
       5     1     1     2   501     0 -8.939112347E+00  5.246253678E+00  3.406670949E+01  3.592400454E+01  4.750000000E+00  0.00000E+00  9.000E+00
      -5     1     1     2     0   503 -2.710851123E+01 -3.042785490E+00 -5.912141591E+02  5.918622089E+02  4.750000000E+00  0.00000E+00  9.000E+00
      21     1     1     2   503   512  2.088769264E+01  1.009920493E+01 -2.986796295E+02  2.995793896E+02  0.000000000E+00  0.00000E+00  9.000E+00
#rwgt            1           9   4.5391084326084589E-004           3      624576           0
</event>
<event>
      6   9999  3.45752E-01  8.66770E+00 -1.00000E+00  1.93981E-01
      21    -1     0     0   501   511  0.000000000E+00  0.000000000E+00  5.795192163E+01  5.795192163E+01  0.000000000E+00  0.00000E+00  9.000E+00
      21    -1     0     0   502   503  0.000000000E+00  0.000000000E+00 -7.992822396E+02  7.992822396E+02  0.000000000E+00  0.00000E+00  9.000E+00
      25     1     1     2     0     0  1.637025876E+00 -1.129610064E+01 -7.715722310E+02  7.817153321E+02  1.249994840E+02  0.00000E+00  9.000E+00
       5     1     1     2   501     0 -3.350595096E-01 -2.591549855E+00  9.158377760E-01  5.498150085E+00  4.750000000E+00  0.00000E+00  9.000E+00
      -5     1     1     2     0   503 -6.304872274E+00  6.809512507E+00 -1.859716666E+01  2.131989641E+01  4.750000000E+00  0.00000E+00  9.000E+00
      21     1     1     2   502   511  5.002905909E+00  7.078137986E+00  4.792324198E+01  4.870078261E+01  3.090257978E-06  0.00000E+00  9.000E+00
#rwgt            1           9   1.9123880164647105E-006           3      627273           0
</event>
<event>
      6   9999  3.45752E-01  3.20246E+01 -1.00000E+00  1.46026E-01
      21    -1     0     0   501   512  0.000000000E+00  0.000000000E+00  7.332855596E+01  7.332855596E+01  0.000000000E+00  0.00000E+00  9.000E+00
      21    -1     0     0   502   503  0.000000000E+00  0.000000000E+00 -1.476897143E+03  1.476897143E+03  0.000000000E+00  0.00000E+00  9.000E+00
      25     1     1     2     0     0  1.133608049E+02  1.061594355E+01 -2.274267063E+02  2.833960700E+02  1.250082213E+02  0.00000E+00  9.000E+00
       5     1     1     2   501     0  4.859590075E+00  3.938841327E+00  3.458799708E+01  3.546860765E+01  4.750000000E+00  0.00000E+00  9.000E+00
      -5     1     1     2     0   503 -8.938340602E+01 -2.848333405E+01 -1.188897511E+03  1.192602427E+03  4.750000000E+00  0.00000E+00  9.000E+00
      21     1     1     2   502   512 -2.883698896E+01  1.392854918E+01 -2.183236628E+01  3.875859429E+01  4.768371582E-07  0.00000E+00  9.000E+00
#rwgt            1           9   7.5855665132894853E-004           3      629791           0
</event>
<event>
      6   9999 -3.45752E-01  3.42754E+01 -1.00000E+00  1.44190E-01
       2    -1     0     0   501     0  0.000000000E+00  0.000000000E+00  1.662665946E+03  1.662665946E+03  0.000000000E+00  0.00000E+00  9.000E+00
      21    -1     0     0   502   503  0.000000000E+00  0.000000000E+00 -3.650116141E+02  3.650116141E+02  0.000000000E+00  0.00000E+00  9.000E+00
      25     1     1     2     0     0  1.899369385E+02 -2.961933208E+01 -3.947163815E+01  2.326722072E+02  1.250000015E+02  0.00000E+00  9.000E+00
       5     1     1     2   501     0  6.455655737E+01  4.306173547E+01 -2.774575135E+01  8.254847896E+01  4.750000000E+00  0.00000E+00  9.000E+00
      -5     1     1     2     0   503 -2.486806623E+02 -4.722126862E+01 -8.128197645E+01  2.658970519E+02  4.750000000E+00  0.00000E+00  9.000E+00
       2     1     1     2   502     0 -5.812833547E+00  3.377886523E+01  1.446153698E+03  1.446559822E+03  2.642899792E-05  0.00000E+00  9.000E+00
#rwgt            1           9  -2.0438209409723337E-002           3      631543           0
</event>
<event>
      6   9999  3.45752E-01  1.65123E+01 -1.00000E+00  1.66834E-01
      21    -1     0     0   501   502  0.000000000E+00  0.000000000E+00  1.460924876E+03  1.460924876E+03  0.000000000E+00  0.00000E+00  9.000E+00
      -2    -1     0     0     0   503  0.000000000E+00  0.000000000E+00 -5.434375957E+02  5.434375957E+02  0.000000000E+00  0.00000E+00  9.000E+00
      25     1     1     2     0     0 -6.041294874E+01  5.134405745E+01  2.822188033E+02  3.186808687E+02  1.249964262E+02  0.00000E+00  9.000E+00
       5     1     1     2   501     0 -4.810461650E+00  7.347624742E-02  1.042023042E+03  1.042044975E+03  4.750000000E+00  0.00000E+00  9.000E+00
      -5     1     1     2     0   503  5.604430085E+01 -6.514344243E+01  1.026548050E+02  1.339597075E+02  4.750000000E+00  0.00000E+00  9.000E+00
      -2     1     1     2     0   502  9.179109546E+00  1.372590873E+01 -5.094093705E+02  5.096769206E+02  1.427329020E-05  0.00000E+00  9.000E+00
#rwgt            1           9   51.349823924104840                3      633393           0
</event>
<event>
      6   9999  3.45752E-01  4.85153E+00 -1.00000E+00  2.31689E-01
      21    -1     0     0   501   511  0.000000000E+00  0.000000000E+00  1.570049244E+01  1.570049244E+01  0.000000000E+00  0.00000E+00  9.000E+00
      21    -1     0     0   502   503  0.000000000E+00  0.000000000E+00 -8.382866173E+02  8.382866173E+02  0.000000000E+00  0.00000E+00  9.000E+00
      25     1     1     2     0     0 -3.207580804E+00  1.468321860E+00 -7.546765346E+02  7.649634810E+02  1.249800418E+02  0.00000E+00  9.000E+00
       5     1     1     2   501     0  7.164710009E-01  1.205687398E+00  4.670490917E+00  6.807569185E+00  4.750000000E+00  0.00000E+00  9.000E+00
      -5     1     1     2     0   503 -1.836807179E+00 -4.866377716E+00 -7.597106724E+01  7.629692688E+01  4.750000000E+00  0.00000E+00  9.000E+00
      21     1     1     2   502   511  4.327916982E+00  2.192368458E+00  3.390986083E+00  5.919132662E+00  4.616955931E-07  0.00000E+00  9.000E+00
#rwgt            1           9   6.4615757013503517E-004           3      636359           0
</event>
<event>
      6   9999  3.45752E-01  3.32830E+01 -1.00000E+00  1.44979E-01
      21    -1     0     0   501   502  0.000000000E+00  0.000000000E+00  5.851771619E+01  5.851771619E+01  0.000000000E+00  0.00000E+00  9.000E+00
      21    -1     0     0   512   503  0.000000000E+00  0.000000000E+00 -2.481936184E+03  2.481936184E+03  0.000000000E+00  0.00000E+00  9.000E+00
      25     1     1     2     0     0 -6.892229948E+01 -1.308336068E-02 -1.261272306E+03  1.269323600E+03  1.249971552E+02  0.00000E+00  9.000E+00
       5     1     1     2   501     0 -5.181877686E+00 -9.711200595E-01  4.876283772E+01  4.927648297E+01  4.750000000E+00  0.00000E+00  9.000E+00
      -5     1     1     2     0   503  4.892270616E+01 -2.077935058E+01 -1.312774705E+02  1.417093834E+02  4.750000000E+00  0.00000E+00  9.000E+00
      21     1     1     2   512   502  2.518147101E+01  2.176355400E+01 -1.079631529E+03  1.080144433E+03  2.157918644E-05  0.00000E+00  9.000E+00
#rwgt            1           9   4.9759614840238489E-004           3      640807           0
</event>
<event>
      6   9999  3.45752E-01  1.61268E+02 -1.00000E+00  1.12229E-01
       2    -1     0     0   501     0  0.000000000E+00  0.000000000E+00  1.786683564E+02  1.786683564E+02  0.000000000E+00  0.00000E+00  9.000E+00
      21    -1     0     0   511   502  0.000000000E+00  0.000000000E+00 -5.467045973E+02  5.467045973E+02  0.000000000E+00  0.00000E+00  9.000E+00
      25     1     1     2     0     0  1.238813500E+02 -9.068335667E+01 -1.097508544E+02  2.263634788E+02  1.250004577E+02  0.00000E+00  9.000E+00
       5     1     1     2   501     0  2.525338007E+01  7.862762709E+00 -2.354804773E+01  3.572994954E+01  4.750000000E+00  0.00000E+00  9.000E+00
      -5     1     1     2     0   502 -5.739972640E+01  2.154555676E+02 -1.971976155E+02  2.977000038E+02  4.750000000E+00  0.00000E+00  9.000E+00
       2     1     1     2   511     0 -9.173500371E+01 -1.326349736E+02 -3.753972324E+01  1.655795215E+02  2.431401974E-06  0.00000E+00  9.000E+00
#rwgt            1           4   1.4252810107360718E-003           3      642599           0
</event>
<event>
      6   9999  3.45752E-01  3.03651E+01 -1.00000E+00  1.47499E-01
      21    -1     0     0   501   512  0.000000000E+00  0.000000000E+00  3.812492955E+01  3.812492955E+01  0.000000000E+00  0.00000E+00  9.000E+00
      21    -1     0     0   502   503  0.000000000E+00  0.000000000E+00 -1.208229369E+03  1.208229369E+03  0.000000000E+00  0.00000E+00  9.000E+00
      25     1     1     2     0     0  2.317645583E+01  7.737273675E+01 -1.735722137E+02  2.286405231E+02  1.250019476E+02  0.00000E+00  9.000E+00
       5     1     1     2   501     0 -3.741285404E+01 -8.924757121E+01 -7.344982256E+02  7.408610238E+02  4.750000000E+00  0.00000E+00  9.000E+00
      -5     1     1     2     0   503  1.179214124E+01  4.214139140E+01 -2.234961911E+02  2.277895112E+02  4.750000000E+00  0.00000E+00  9.000E+00
      21     1     1     2   502   512  2.444256959E+00 -3.026655693E+01 -3.853780939E+01  4.906324095E+01  9.536743164E-07  0.00000E+00  9.000E+00
#rwgt            1           9   1.3795926197309859E-003           3      642716           0
</event>
<event>
      6   9999  3.45752E-01  5.54629E+00 -1.00000E+00  2.18928E-01
      21    -1     0     0   511   502  0.000000000E+00  0.000000000E+00  5.727642171E+02  5.727642171E+02  0.000000000E+00  0.00000E+00  9.000E+00
      21    -1     0     0   502   503  0.000000000E+00  0.000000000E+00 -7.594380673E+02  7.594380673E+02  0.000000000E+00  0.00000E+00  9.000E+00
      25     1     1     2     0     0  1.740227668E+01 -2.341789692E+01 -5.939824034E+02  6.076911274E+02  1.249886940E+02  0.00000E+00  9.000E+00
       5     1     1     2   501     0  1.017321906E+00 -2.386941435E-01 -4.766119501E+00  6.809575160E+00  4.750000000E+00  0.00000E+00  9.000E+00
      -5     1     1     2     0   503 -1.390975825E+01  2.042818118E+01 -1.517635670E+02  1.538360645E+02  4.750000000E+00  0.00000E+00  9.000E+00
      21     1     1     2   511   501 -4.509840331E+00  3.228409885E+00  5.638382396E+02  5.638655174E+02  0.000000000E+00  0.00000E+00  9.000E+00
#rwgt            1           9  0.14319727642638641                3      644265           0
</event>
<event>
      6   9999  3.45752E-01  1.91281E+01 -1.00000E+00  1.61702E-01
      21    -1     0     0   512   502  0.000000000E+00  0.000000000E+00  6.869709274E+01  6.869709274E+01  0.000000000E+00  0.00000E+00  9.000E+00
      21    -1     0     0   502   503  0.000000000E+00  0.000000000E+00 -1.343388418E+03  1.343388418E+03  0.000000000E+00  0.00000E+00  9.000E+00
      25     1     1     2     0     0 -3.386004497E+01 -3.940304834E+01 -7.102926972E+02  7.230757486E+02  1.249948784E+02  0.00000E+00  9.000E+00
       5     1     1     2   501     0  8.979659785E-01 -1.136585209E+00  5.367001414E+01  5.389926796E+01  4.750000000E+00  0.00000E+00  9.000E+00
      -5     1     1     2     0   503  1.502128025E+01  3.390547287E+01 -6.145197027E+02  6.156559490E+02  4.750000000E+00  0.00000E+00  9.000E+00
      21     1     1     2   512   501  1.794079873E+01  6.634160678E+00 -3.548939082E+00  1.945454486E+01  5.575503985E-07  0.00000E+00  9.000E+00
#rwgt            1           9   2.7787785262928821E-003           3      647808           0
</event>
<event>
      6   9999  3.45752E-01  5.65962E+01 -1.00000E+00  1.31970E-01
      21    -1     0     0   501   502  0.000000000E+00  0.000000000E+00  3.701470907E+01  3.701470907E+01  0.000000000E+00  0.00000E+00  9.000E+00
      21    -1     0     0   502   511  0.000000000E+00  0.000000000E+00 -1.409133912E+03  1.409133912E+03  0.000000000E+00  0.00000E+00  9.000E+00
      25     1     1     2     0     0 -5.708379302E+01  1.791445570E+02 -5.184478492E+02  5.654675757E+02  1.249562927E+02  0.00000E+00  9.000E+00
       5     1     1     2   501     0 -1.636996000E+01 -1.687896584E+00 -7.502560120E+01  7.695601289E+01  4.750000000E+00  0.00000E+00  9.000E+00
      -5     1     1     2     0   503  3.203456866E+01 -1.388874921E+02 -5.563446313E+02  5.743325346E+02  4.750000000E+00  0.00000E+00  9.000E+00
      21     1     1     2   503   511  4.141918436E+01 -3.856916825E+01 -2.223011211E+02  2.293924978E+02  0.000000000E+00  0.00000E+00  9.000E+00
#rwgt            1           9   5.4036331161971462E-003           3      650533           0
</event>
<event>
      6   9999  3.45752E-01  5.70552E+00 -1.00000E+00  2.17148E-01
      21    -1     0     0   501   512  0.000000000E+00  0.000000000E+00  3.675592852E+02  3.675592852E+02  0.000000000E+00  0.00000E+00  9.000E+00
      21    -1     0     0   502   503  0.000000000E+00  0.000000000E+00 -6.934696819E+02  6.934696819E+02  0.000000000E+00  0.00000E+00  9.000E+00
      25     1     1     2     0     0 -8.434532694E+00 -2.811386374E+00 -6.167925410E+02  6.293941941E+02  1.249998708E+02  0.00000E+00  9.000E+00
       5     1     1     2   501     0  2.362333663E-01  3.481539203E-01 -4.453907955E+01  4.479362817E+01  4.750000000E+00  0.00000E+00  9.000E+00
      -5     1     1     2     0   503  2.627267124E+00  1.231727240E+00 -2.538587540E+01  2.598893715E+01  4.750000000E+00  0.00000E+00  9.000E+00
      21     1     1     2   502   512  5.571032204E+00  1.231505214E+00  3.608070992E+02  3.608522077E+02  5.394796609E-06  0.00000E+00  9.000E+00
#rwgt            1           9   1.3638565186559651E-003           3      651520           0
</event>
<event>
      6   9999  3.45752E-01  1.88454E+01 -1.00000E+00  1.62207E-01
      21    -1     0     0   501   511  0.000000000E+00  0.000000000E+00  2.464632983E+01  2.464632983E+01  0.000000000E+00  0.00000E+00  9.000E+00
      21    -1     0     0   502   503  0.000000000E+00  0.000000000E+00 -1.052780318E+03  1.052780318E+03  0.000000000E+00  0.00000E+00  9.000E+00
      25     1     1     2     0     0  3.506492016E+01 -3.690254998E+01 -3.819029006E+02  4.050520897E+02  1.250040922E+02  0.00000E+00  9.000E+00
       5     1     1     2   501     0  7.157800716E-01  1.831463123E+00  8.911228127E+00  1.028781245E+01  4.750000000E+00  0.00000E+00  9.000E+00
      -5     1     1     2     0   503 -1.758654334E+01  3.998246277E+01 -6.249706959E+02  6.265132217E+02  4.750000000E+00  0.00000E+00  9.000E+00
      21     1     1     2   502   511 -1.819415689E+01 -4.911375911E+00 -3.017161955E+01  3.557352364E+01  6.743495762E-07  0.00000E+00  9.000E+00
#rwgt            1           9   2.2502149510361417E-004           3      655209           0
</event>
<event>
      6   9999  3.45752E-01  8.63501E+00 -1.00000E+00  1.94167E-01
      21    -1     0     0   501   512  0.000000000E+00  0.000000000E+00  1.388246694E+02  1.388246694E+02  0.000000000E+00  0.00000E+00  9.000E+00
      21    -1     0     0   502   503  0.000000000E+00  0.000000000E+00 -1.526812657E+03  1.526812657E+03  0.000000000E+00  0.00000E+00  9.000E+00
      25     1     1     2     0     0 -4.754290467E+00 -1.899574935E+01 -1.265323602E+03  1.271633723E+03  1.250002623E+02  0.00000E+00  9.000E+00
       5     1     1     2   501     0  2.477928875E+00  1.432950285E+01  7.128809353E+01  7.291110726E+01  4.750000000E+00  0.00000E+00  9.000E+00
      -5     1     1     2     0   503  8.926832260E+00 -8.414408765E-01 -2.571287260E+02  2.573288569E+02  4.750000000E+00  0.00000E+00  9.000E+00
      21     1     1     2   502   512 -6.650470668E+00  5.507687382E+00  6.317624746E+01  6.376363872E+01  1.348699152E-06  0.00000E+00  9.000E+00
#rwgt            1           9   4.6186247573294127E-004           3      657202           0
</event>
<event>
      6   9999 -3.45752E-01  8.75834E+00 -1.00000E+00  1.93470E-01
      21    -1     0     0   502   511  0.000000000E+00  0.000000000E+00  1.623438627E+01  1.623438627E+01  0.000000000E+00  0.00000E+00  9.000E+00
      21    -1     0     0   501   502  0.000000000E+00  0.000000000E+00 -9.196018223E+02  9.196018223E+02  0.000000000E+00  0.00000E+00  9.000E+00
      25     1     1     2     0     0 -4.904246906E+00  2.092492699E+00 -2.721596359E+02  2.995427782E+02  1.250063134E+02  0.00000E+00  9.000E+00
       5     1     1     2   501     0 -2.766956110E+00 -2.939974909E+00 -6.021333882E+02  6.021656576E+02  4.750000000E+00  0.00000E+00  9.000E+00
      -5     1     1     2     0   503  3.504045954E+00 -6.855980478E+00 -1.330469415E+01  1.608913276E+01  4.750000000E+00  0.00000E+00  9.000E+00
      21     1     1     2   503   511  4.167157062E+00  7.703462687E+00 -1.576971781E+01  1.803864006E+01  5.591411304E-07  0.00000E+00  9.000E+00
#rwgt            1           9 -0.16379461966363543                3      662060           0
</event>
<event>
      6   9999  3.45752E-01  3.12194E+01 -1.00000E+00  1.46727E-01
      21    -1     0     0   502   503  0.000000000E+00  0.000000000E+00  1.502281328E+02  1.502281328E+02  0.000000000E+00  0.00000E+00  9.000E+00
      21    -1     0     0   512   502  0.000000000E+00  0.000000000E+00 -3.312850478E+02  3.312850478E+02  0.000000000E+00  0.00000E+00  9.000E+00
      25     1     1     2     0     0  3.949792515E+00  5.073530825E+00  7.522002822E+01  1.460286239E+02  1.249998591E+02  0.00000E+00  9.000E+00
       5     1     1     2   501     0  1.369453207E+01 -2.940222909E+01  2.703010055E+01  4.248788204E+01  4.750000000E+00  0.00000E+00  9.000E+00
      -5     1     1     2     0   503  1.053113010E+00 -6.723835436E-01  2.485052721E+00  5.504464885E+00  4.750000000E+00  0.00000E+00  9.000E+00
      21     1     1     2   512   501 -1.869743760E+01  2.500108181E+01 -2.857920964E+02  2.874922097E+02  3.814697266E-06  0.00000E+00  9.000E+00
#rwgt            1           9   1.0578101288483740E-002           3      664973           0
</event>
<event>
      6   9999  3.45752E-01  1.29422E+01 -1.00000E+00  1.76119E-01
      21    -1     0     0   511   502  0.000000000E+00  0.000000000E+00  2.160361954E+02  2.160361954E+02  0.000000000E+00  0.00000E+00  9.000E+00
      21    -1     0     0   502   503  0.000000000E+00  0.000000000E+00 -1.098091467E+03  1.098091467E+03  0.000000000E+00  0.00000E+00  9.000E+00
      25     1     1     2     0     0  1.002076140E+01  1.471624411E+01 -6.423275405E+02  6.546187527E+02  1.249962344E+02  0.00000E+00  9.000E+00
       5     1     1     2   501     0 -1.375167983E+01  5.939878265E+00  3.408594104E+01  3.753404759E+01  4.750000000E+00  0.00000E+00  9.000E+00
      -5     1     1     2     0   503 -7.453744599E+00 -1.414434833E+01 -4.474981466E+02  4.478088594E+02  4.750000000E+00  0.00000E+00  9.000E+00
      21     1     1     2   511   501  1.118466303E+01 -6.511774047E+00  1.736844744E+02  1.741660028E+02  3.303624740E-06  0.00000E+00  9.000E+00
#rwgt            1           9   4.8810675319999861E-004           3      665882           0
</event>
<event>
      6   9999  3.45752E-01  5.26206E+01 -1.00000E+00  1.33611E-01
      21    -1     0     0   501   502  0.000000000E+00  0.000000000E+00  6.298001040E+01  6.298001040E+01  0.000000000E+00  0.00000E+00  9.000E+00
      21    -1     0     0   502   512  0.000000000E+00  0.000000000E+00 -1.644045915E+03  1.644045915E+03  0.000000000E+00  0.00000E+00  9.000E+00
      25     1     1     2     0     0 -3.271670426E+01  3.542406674E+01 -3.600630411E+02  3.841811438E+02  1.249980417E+02  0.00000E+00  9.000E+00
       5     1     1     2   501     0 -1.485995393E+01  1.130081382E-01  4.659738143E+01  4.913969330E+01  4.750000000E+00  0.00000E+00  9.000E+00
      -5     1     1     2     0   503  3.671977101E+00 -6.531813704E+00 -1.042441553E+03  1.042479305E+03  4.750000000E+00  0.00000E+00  9.000E+00
      21     1     1     2   503   512  4.390468109E+01 -2.900526118E+01 -2.251586923E+02  2.312257834E+02  5.394796609E-06  0.00000E+00  9.000E+00
#rwgt            1           9   1.9887710222798234E-002           3      668894           0
</event>
<event>
      6   9999  3.45752E-01  2.29127E+01 -1.00000E+00  1.55830E-01
      21    -1     0     0   501   502  0.000000000E+00  0.000000000E+00  3.258150443E+01  3.258150443E+01  0.000000000E+00  0.00000E+00  9.000E+00
       2    -1     0     0   502     0  0.000000000E+00  0.000000000E+00 -3.137254774E+03  3.137254774E+03  0.000000000E+00  0.00000E+00  9.000E+00
      25     1     1     2     0     0 -5.207472640E+00  6.590489261E+01 -9.707979209E+02  9.810422082E+02  1.249985533E+02  0.00000E+00  9.000E+00
       5     1     1     2   501     0 -3.282198540E+00 -1.136252638E+01  2.385037115E+01  2.704223616E+01  4.750000000E+00  0.00000E+00  9.000E+00
      -5     1     1     2     0   503 -5.853924151E+00 -3.667474282E+01 -1.780789085E+02  1.819724302E+02  4.750000000E+00  0.00000E+00  9.000E+00
       2     1     1     2   503     0  1.434359533E+01 -1.786762342E+01 -1.979646811E+03  1.979779404E+03  2.157918644E-05  0.00000E+00  9.000E+00
#rwgt            1           9   1.6226620960760264E-002           3      670135           0
</event>
<event>
      6   9999  3.45752E-01  3.56282E+00 -1.00000E+00  2.58735E-01
      21    -1     0     0   501   511  0.000000000E+00  0.000000000E+00  1.393206517E+02  1.393206517E+02  0.000000000E+00  0.00000E+00  9.000E+00
      21    -1     0     0   502   503  0.000000000E+00  0.000000000E+00 -1.873577601E+02  1.873577601E+02  0.000000000E+00  0.00000E+00  9.000E+00
      25     1     1     2     0     0  4.943772011E+01  3.520021457E+01 -6.704724782E+01  1.542874510E+02  1.250045632E+02  0.00000E+00  9.000E+00
       5     1     1     2   501     0  1.345020673E+00 -6.370179305E-02  1.986583989E+01  2.047015469E+01  4.750000000E+00  0.00000E+00  9.000E+00
      -5     1     1     2     0   503 -5.256088537E+01 -3.822388548E+01 -6.243036987E+01  9.024314752E+01  4.750000000E+00  0.00000E+00  9.000E+00
      21     1     1     2   502   511  1.778144584E+00  3.087372708E+00  6.157466933E+01  6.167765861E+01  0.000000000E+00  0.00000E+00  9.000E+00
#rwgt            1           9   7.2814554447619570E-002           3      672059           0
</event>
<event>
      6   9999  3.45752E-01  2.54596E+01 -1.00000E+00  1.52601E-01
      21    -1     0     0   501   512  0.000000000E+00  0.000000000E+00  7.153414549E+01  7.153414549E+01  0.000000000E+00  0.00000E+00  9.000E+00
      21    -1     0     0   502   503  0.000000000E+00  0.000000000E+00 -7.574854365E+02  7.574854365E+02  0.000000000E+00  0.00000E+00  9.000E+00
      25     1     1     2     0     0  2.575759958E+01 -3.523027300E+00 -7.280650167E+02  7.391746570E+02  1.249985578E+02  0.00000E+00  9.000E+00
       5     1     1     2   501     0  2.678563271E+00  1.597855166E-02 -9.830460991E-01  5.541104235E+00  4.750000000E+00  0.00000E+00  9.000E+00
      -5     1     1     2     0   503 -2.997885356E+00  4.549913837E+00 -1.730584497E+01  1.875483411E+01  4.750000000E+00  0.00000E+00  9.000E+00
      21     1     1     2   502   512 -2.543827749E+01 -1.042865089E+00  6.040261677E+01  6.554898658E+01  2.236564522E-06  0.00000E+00  9.000E+00
#rwgt            1           9   1.1065273864931950E-005           3      678177           0
</event>
<event>
      6   9999  3.45752E-01  9.52084E+00 -1.00000E+00  1.89468E-01
      21    -1     0     0   501   511  0.000000000E+00  0.000000000E+00  8.444430038E+00  8.444430038E+00  0.000000000E+00  0.00000E+00  9.000E+00
      21    -1     0     0   502   503  0.000000000E+00  0.000000000E+00 -7.644526419E+02  7.644526419E+02  0.000000000E+00  0.00000E+00  9.000E+00
      25     1     1     2     0     0  4.151128353E+00 -4.847172728E-01 -6.429917239E+02  6.550467088E+02  1.250214655E+02  0.00000E+00  9.000E+00
       5     1     1     2   501     0 -2.524334741E-01 -9.224779801E-01 -2.196028343E+00  5.319748938E+00  4.750000000E+00  0.00000E+00  9.000E+00
      -5     1     1     2     0   503  1.119291413E+00 -6.683924491E+00 -7.540254913E+01  7.585535298E+01  4.750000000E+00  0.00000E+00  9.000E+00
      21     1     1     2   502   511 -5.017986292E+00  8.091119744E+00 -3.541791049E+01  3.667526127E+01  4.768371582E-07  0.00000E+00  9.000E+00
#rwgt            1           9   1.0102490947760980E-003           3      679130           0
</event>
<event>
      6   9999  3.45752E-01  1.49829E+01 -1.00000E+00  1.70414E-01
      21    -1     0     0   501   502  0.000000000E+00  0.000000000E+00  2.178262956E+02  2.178262956E+02  0.000000000E+00  0.00000E+00  9.000E+00
      21    -1     0     0   512   503  0.000000000E+00  0.000000000E+00 -6.831411634E+01  6.831411634E+01  0.000000000E+00  0.00000E+00  9.000E+00
      25     1     1     2     0     0  7.949729369E+00 -1.196507149E+01  8.775651544E+01  1.534024926E+02  1.249990304E+02  0.00000E+00  9.000E+00
       5     1     1     2   501     0 -8.053662652E-02 -1.304126094E+00  8.322950454E+01  8.337517710E+01  4.750000000E+00  0.00000E+00  9.000E+00
      -5     1     1     2     0   503 -4.594870153E+00 -1.351503540E+00  1.139397146E+01  1.324101504E+01  4.750000000E+00  0.00000E+00  9.000E+00
      21     1     1     2   512   502 -3.274322590E+00  1.462070112E+01 -3.286781223E+01  3.612172712E+01  9.536743164E-07  0.00000E+00  9.000E+00
#rwgt            1           9   1.5328345997495712E-004           3      681560           0
</event>
<event>
      6   9999 -3.45752E-01  1.66862E+01 -1.00000E+00  1.66457E-01
      21    -1     0     0   501   511  0.000000000E+00  0.000000000E+00  1.024098831E+02  1.024098831E+02  0.000000000E+00  0.00000E+00  9.000E+00
      21    -1     0     0   502   503  0.000000000E+00  0.000000000E+00 -3.503986264E+02  3.503986264E+02  0.000000000E+00  0.00000E+00  9.000E+00
      25     1     1     2     0     0 -8.098202470E+01  1.192429938E+02 -2.133923685E+02  2.862465329E+02  1.249951791E+02  0.00000E+00  9.000E+00
       5     1     1     2   501     0 -1.289935500E+00  2.134804623E-01  1.106241101E+01  1.210986973E+01  4.750000000E+00  0.00000E+00  9.000E+00
      -5     1     1     2     0   503  7.546274698E+01 -1.042228807E+02 -4.836969430E+01  1.375471732E+02  4.750000000E+00  0.00000E+00  9.000E+00
      21     1     1     2   502   511  6.809213222E+00 -1.523359352E+01  2.710908373E+00  1.690493362E+01  2.858538343E-07  0.00000E+00  9.000E+00
#rwgt            1           9  -1.0227118494938341E-002           3      684706           0
</event>
<event>
      6   9999  3.45752E-01  1.71018E+01 -1.00000E+00  1.65579E-01
      21    -1     0     0   501   502  0.000000000E+00  0.000000000E+00  4.053802879E+01  4.053802879E+01  0.000000000E+00  0.00000E+00  9.000E+00
      21    -1     0     0   512   503  0.000000000E+00  0.000000000E+00 -2.388227906E+03  2.388227906E+03  0.000000000E+00  0.00000E+00  9.000E+00
      25     1     1     2     0     0 -4.908402082E+01 -1.063299940E+02 -2.005833413E+02  2.637689865E+02  1.250003708E+02  0.00000E+00  9.000E+00
       5     1     1     2   501     0  6.415999254E-01  1.848680432E-01  5.248368164E+00  7.110112168E+00  4.750000000E+00  0.00000E+00  9.000E+00
      -5     1     1     2     0   503  5.323380098E+01  8.972827163E+01 -1.006449335E+03  1.011853658E+03  4.750000000E+00  0.00000E+00  9.000E+00
      21     1     1     2   512   502 -4.791380083E+00  1.641685430E+01 -1.145905569E+03  1.146033177E+03  1.525878906E-05  0.00000E+00  9.000E+00
#rwgt            1           9   7.1187942761702242E-004           3      687051           0
</event>
<event>
      6   9999  3.45752E-01  1.06701E+01 -1.00000E+00  1.84274E-01
      21    -1     0     0   501   511  0.000000000E+00  0.000000000E+00  1.929769047E+03  1.929769047E+03  0.000000000E+00  0.00000E+00  9.000E+00
      21    -1     0     0   502   503  0.000000000E+00  0.000000000E+00 -4.784484507E+00  4.784484507E+00  0.000000000E+00  0.00000E+00  9.000E+00
      25     1     1     2     0     0  2.564057187E+00 -1.037392761E+01  8.646210193E+02  8.736737038E+02  1.249881630E+02  0.00000E+00  9.000E+00
       5     1     1     2   501     0 -2.248918871E+00 -2.655263369E-01  7.419573531E+02  7.419760134E+02  4.750000000E+00  0.00000E+00  9.000E+00
      -5     1     1     2     0   503 -5.148658468E+00  1.126886471E+00  1.164512455E+02  1.166671918E+02  4.750000000E+00  0.00000E+00  9.000E+00
      21     1     1     2   502   511  4.833520152E+00  9.512567477E+00  2.019549447E+02  2.022366227E+02  0.000000000E+00  0.00000E+00  9.000E+00
#rwgt            1           9   6.4975714930021373E-004           3      689954           0
</event>
<event>
      6   9999 -3.45752E-01  3.16624E+01 -1.00000E+00  1.46339E-01
      21    -1     0     0   502   503  0.000000000E+00  0.000000000E+00  3.572482388E+01  3.572482388E+01  0.000000000E+00  0.00000E+00  9.000E+00
      21    -1     0     0   501   512  0.000000000E+00  0.000000000E+00 -5.678567370E+02  5.678567370E+02  0.000000000E+00  0.00000E+00  9.000E+00
      25     1     1     2     0     0 -1.020482948E+01 -4.020072974E+01 -9.725860269E+01  1.637217860E+02  1.250014007E+02  0.00000E+00  9.000E+00
       5     1     1     2   501     0  3.038388656E+00 -2.369525774E+00 -1.207788987E+02  1.209336650E+02  4.750000000E+00  0.00000E+00  9.000E+00
      -5     1     1     2     0   503 -1.197008290E+01  1.734525947E+01 -8.735469214E+01  8.998636369E+01  4.750000000E+00  0.00000E+00  9.000E+00
      21     1     1     2   502   512  1.913652372E+01  2.522499604E+01 -2.267397196E+02  2.289397462E+02  2.697398305E-06  0.00000E+00  9.000E+00
#rwgt            1           9  -1.0209589410897592E-002           3      692060           0
</event>
<event>
      6   9999 -3.45752E-01  3.59402E+00 -1.00000E+00  2.57880E-01
      21    -1     0     0   511   502  0.000000000E+00  0.000000000E+00  1.054852654E+01  1.054852654E+01  0.000000000E+00  0.00000E+00  9.000E+00
      21    -1     0     0   502   503  0.000000000E+00  0.000000000E+00 -6.823258732E+02  6.823258732E+02  0.000000000E+00  0.00000E+00  9.000E+00
      25     1     1     2     0     0 -1.620939528E+00  1.892629276E-01 -6.331126450E+02  6.453368688E+02  1.250015584E+02  0.00000E+00  9.000E+00
       5     1     1     2   501     0 -7.769786581E-01 -1.357974198E-01 -2.030611908E+00  5.225707751E+00  4.750000000E+00  0.00000E+00  9.000E+00
      -5     1     1     2     0   503  1.815299118E+00 -3.599945205E+00 -3.796984287E+01  3.847760887E+01  4.750000000E+00  0.00000E+00  9.000E+00
      21     1     1     2   511   501  5.826190673E-01  3.546479697E+00  1.335753159E+00  3.834214355E+00  7.146345859E-08  0.00000E+00  9.000E+00
#rwgt            1           9  -3.7946543491393999E-004           3      693338           0
</event>
<event>
      6   9999 -3.45752E-01  3.26698E+00 -1.00000E+00  2.67573E-01
      21    -1     0     0   501   502  0.000000000E+00  0.000000000E+00  1.365329344E+01  1.365329344E+01  0.000000000E+00  0.00000E+00  9.000E+00
      21    -1     0     0   502   512  0.000000000E+00  0.000000000E+00 -1.605476629E+03  1.605476629E+03  0.000000000E+00  0.00000E+00  9.000E+00
      25     1     1     2     0     0 -1.061819717E+01 -2.653962626E+01 -1.428122172E+03  1.433866958E+03  1.249976647E+02  0.00000E+00  9.000E+00
       5     1     1     2   501     0 -2.458826182E+00 -2.338624755E+00  6.855779906E+00  9.004399484E+00  4.750000000E+00  0.00000E+00  9.000E+00
      -5     1     1     2     0   503  1.186863018E+01  2.584296455E+01 -7.076500479E+01  7.641316380E+01  4.750000000E+00  0.00000E+00  9.000E+00
      21     1     1     2   503   512  1.208393170E+00  3.035286459E+00 -9.979193845E+01  9.984540128E+01  1.348699152E-06  0.00000E+00  9.000E+00
#rwgt            1           9  -2.0759855923289448                3      698071           0
</event>
<event>
      6   9999  3.45752E-01  4.77726E+01 -1.00000E+00  1.35855E-01
       2    -1     0     0   501     0  0.000000000E+00  0.000000000E+00  3.995159635E+02  3.995159635E+02  0.000000000E+00  0.00000E+00  9.000E+00
      21    -1     0     0   502   503  0.000000000E+00  0.000000000E+00 -1.272909950E+03  1.272909950E+03  0.000000000E+00  0.00000E+00  9.000E+00
      25     1     1     2     0     0 -1.121037544E+01 -7.280035879E+00 -1.211361268E+03  1.217867134E+03  1.250022523E+02  0.00000E+00  9.000E+00
       5     1     1     2   501     0 -4.229639565E+01 -9.526792280E+00  1.190774881E+02  1.268138617E+02  4.750000000E+00  0.00000E+00  9.000E+00
      -5     1     1     2     0   503  6.388157383E+00  8.929017298E+00 -5.165123413E+01  5.301837787E+01  4.750000000E+00  0.00000E+00  9.000E+00
       2     1     1     2   502     0  4.711861370E+01  7.877810861E+00  2.705410280E+02  2.747265395E+02  6.607249480E-06  0.00000E+00  9.000E+00
#rwgt            1           9   8.3549311695981562E-003           3      704868           0
</event>
<event>
      6   9999  3.45752E-01  1.37336E+01 -1.00000E+00  1.73760E-01
      21    -1     0     0   511   502  0.000000000E+00  0.000000000E+00  2.598625565E+01  2.598625565E+01  0.000000000E+00  0.00000E+00  9.000E+00
      21    -1     0     0   502   503  0.000000000E+00  0.000000000E+00 -1.693494750E+03  1.693494750E+03  0.000000000E+00  0.00000E+00  9.000E+00
      25     1     1     2     0     0 -4.056161108E+00  4.155219343E+00 -1.638947359E+03  1.643717411E+03  1.249990507E+02  0.00000E+00  9.000E+00
       5     1     1     2   501     0 -6.391404260E-01  1.780489479E+00 -6.173712484E+00  8.015975867E+00  4.750000000E+00  0.00000E+00  9.000E+00
      -5     1     1     2     0   503 -6.078454194E+00  2.581181251E+00 -4.256741679E+01  4.333771538E+01  4.750000000E+00  0.00000E+00  9.000E+00
      21     1     1     2   511   501  1.077375573E+01 -8.516890074E+00  2.017999404E+01  2.440990349E+01  2.384185791E-07  0.00000E+00  9.000E+00
#rwgt            1           9   5.5299327445887403E-004           3      706491           0
</event>
<event>
      6   9999  3.45752E-01  5.65682E+00 -1.00000E+00  2.17684E-01
      21    -1     0     0   501   512  0.000000000E+00  0.000000000E+00  2.872164332E+01  2.872164332E+01  0.000000000E+00  0.00000E+00  9.000E+00
      21    -1     0     0   502   503  0.000000000E+00  0.000000000E+00 -9.952632809E+02  9.952632809E+02  0.000000000E+00  0.00000E+00  9.000E+00
      25     1     1     2     0     0  8.451358293E+00 -2.122686451E+00 -9.414458612E+02  9.497468552E+02  1.249913920E+02  0.00000E+00  9.000E+00
       5     1     1     2   501     0 -5.619496789E+00 -2.166894190E+00  1.467916473E+01  1.656244402E+01  4.750000000E+00  0.00000E+00  9.000E+00
      -5     1     1     2     0   503 -2.603108064E+00 -1.362614529E+00 -4.765177707E+01  4.797798712E+01  4.750000000E+00  0.00000E+00  9.000E+00
      21     1     1     2   502   512 -2.287534400E-01  5.652195170E+00  7.876835909E+00  9.697637976E+00  7.725644944E-07  0.00000E+00  9.000E+00
#rwgt            1           9   9.9821440564341305E-004           3      708189           0
</event>
<event>
      6   9999  3.45752E-01  1.60280E+01 -1.00000E+00  1.67914E-01
      21    -1     0     0   501   502  0.000000000E+00  0.000000000E+00  2.988300571E+01  2.988300571E+01  0.000000000E+00  0.00000E+00  9.000E+00
      21    -1     0     0   511   503  0.000000000E+00  0.000000000E+00 -1.275199826E+03  1.275199826E+03  0.000000000E+00  0.00000E+00  9.000E+00
      25     1     1     2     0     0 -4.513469643E+01 -2.527296670E+01 -3.053254164E+02  3.339532033E+02  1.250010736E+02  0.00000E+00  9.000E+00
       5     1     1     2   501     0  2.493850935E+00  1.207061247E+00  9.119225681E+00  1.064889977E+01  4.750000000E+00  0.00000E+00  9.000E+00
      -5     1     1     2     0   503  4.796227627E+01  3.918471955E+01 -1.665544513E+02  1.777604285E+02  4.750000000E+00  0.00000E+00  9.000E+00
      21     1     1     2   511   502 -5.321430772E+00 -1.511881410E+01 -7.825561781E+02  7.827203000E+02  1.525878906E-05  0.00000E+00  9.000E+00
#rwgt            1           9   8.9868714172042377E-006           3      712994           0
</event>
<event>
      6   9999  3.45752E-01  9.67220E+00 -1.00000E+00  1.88731E-01
      21    -1     0     0   501   502  0.000000000E+00  0.000000000E+00  1.884864283E+02  1.884864283E+02  0.000000000E+00  0.00000E+00  9.000E+00
       2    -1     0     0   502     0  0.000000000E+00  0.000000000E+00 -9.984210484E+02  9.984210484E+02  0.000000000E+00  0.00000E+00  9.000E+00
      25     1     1     2     0     0 -2.349037972E+01  1.287722835E+01 -6.679191018E+02  6.800429201E+02  1.249993025E+02  0.00000E+00  9.000E+00
       5     1     1     2   501     0  7.781241982E-01 -5.198415994E-01  1.817394480E+02  1.818039196E+02  4.750000000E+00  0.00000E+00  9.000E+00
      -5     1     1     2     0   503  1.548933177E+01 -5.924591202E+00 -1.412398136E+02  1.422893799E+02  4.750000000E+00  0.00000E+00  9.000E+00
       2     1     1     2   503     0  7.222923753E+00 -6.432795549E+00 -1.825151526E+02  1.827712571E+02  0.000000000E+00  0.00000E+00  9.000E+00
#rwgt            1           9   44.310097083744637                3      715191           0
</event>
<event>
      6   9999  3.45752E-01  3.23197E+00 -1.00000E+00  2.68716E-01
      21    -1     0     0   501   511  0.000000000E+00  0.000000000E+00  1.079281135E+01  1.079281135E+01  0.000000000E+00  0.00000E+00  9.000E+00
      21    -1     0     0   502   503  0.000000000E+00  0.000000000E+00 -6.953807410E+02  6.953807410E+02  0.000000000E+00  0.00000E+00  9.000E+00
      25     1     1     2     0     0 -5.035424875E+00 -6.653130950E+00 -6.575648559E+02  6.693920894E+02  1.249984397E+02  0.00000E+00  9.000E+00
       5     1     1     2   501     0 -1.986800753E-01 -7.434691565E-02 -1.409840867E+00  4.959350009E+00  4.750000000E+00  0.00000E+00  9.000E+00
      -5     1     1     2     0   503  7.329786382E+00  9.187920875E+00 -2.562593259E+01  2.859011332E+01  4.750000000E+00  0.00000E+00  9.000E+00
      21     1     1     2   502   511 -2.095681432E+00 -2.460443008E+00  1.269973078E-02  3.231999651E+00  1.366631589E-07  0.00000E+00  9.000E+00
#rwgt            1           9   5.5103827535345887E-002           3      720377           0
</event>
<event>
      6   9999  3.45752E-01  1.79835E+01 -1.00000E+00  1.63815E-01
      21    -1     0     0   501   502  0.000000000E+00  0.000000000E+00  3.889600410E+01  3.889600410E+01  0.000000000E+00  0.00000E+00  9.000E+00
      21    -1     0     0   512   503  0.000000000E+00  0.000000000E+00 -1.134295427E+03  1.134295427E+03  0.000000000E+00  0.00000E+00  9.000E+00
      25     1     1     2     0     0  3.956537893E+01 -8.494044486E+01 -5.122860781E+02  5.355762219E+02  1.249982611E+02  0.00000E+00  9.000E+00
       5     1     1     2   501     0  6.212905325E+00  2.088654959E+00  2.192417317E+01  2.337080532E+01  4.750000000E+00  0.00000E+00  9.000E+00
      -5     1     1     2     0   503 -2.829605629E+01  7.863518708E+01 -4.149868901E+02  4.233448250E+02  4.750000000E+00  0.00000E+00  9.000E+00
      21     1     1     2   512   502 -1.748222796E+01  4.216602822E+00 -1.900506278E+02  1.908995787E+02  0.000000000E+00  0.00000E+00  9.000E+00
#rwgt            1           9  0.78199563789784343                3      725399           0
</event>
<event>
      6   9999  3.45752E-01  1.20931E+01 -1.00000E+00  1.78899E-01
      21    -1     0     0   511   503  0.000000000E+00  0.000000000E+00  4.819769897E+02  4.819769897E+02  0.000000000E+00  0.00000E+00  9.000E+00
      21    -1     0     0   501   502  0.000000000E+00  0.000000000E+00 -3.139696586E+01  3.139696586E+01  0.000000000E+00  0.00000E+00  9.000E+00
      25     1     1     2     0     0  3.905239257E+01  3.071496107E+00  1.323255900E+02  1.862033258E+02  1.250083729E+02  0.00000E+00  9.000E+00
       5     1     1     2   501     0  1.427845680E+00  1.747814646E+00 -8.191986943E-01  5.322328985E+00  4.750000000E+00  0.00000E+00  9.000E+00
      -5     1     1     2     0   503 -2.889651028E+01 -1.346567409E+00  1.957132657E+02  1.978966054E+02  4.750000000E+00  0.00000E+00  9.000E+00
      21     1     1     2   511   502 -1.158372796E+01 -3.472743345E+00  1.233603669E+02  1.239516955E+02  0.000000000E+00  0.00000E+00  9.000E+00
#rwgt            1           9   6.8084437919055025                3      727504           0
</event>
<event>
      6   9999  3.45752E-01  8.69545E+00 -1.00000E+00  1.93824E-01
      21    -1     0     0   501   502  0.000000000E+00  0.000000000E+00  4.447859126E+02  4.447859126E+02  0.000000000E+00  0.00000E+00  9.000E+00
      21    -1     0     0   512   503  0.000000000E+00  0.000000000E+00 -7.327585160E+01  7.327585160E+01  0.000000000E+00  0.00000E+00  9.000E+00
      25     1     1     2     0     0 -5.955500114E+01  1.445563202E+01  9.667007208E+01  1.694861200E+02  1.249987143E+02  0.00000E+00  9.000E+00
       5     1     1     2   501     0 -5.785780611E-01 -3.273118868E+00  2.816119846E+02  2.816716536E+02  4.750000000E+00  0.00000E+00  9.000E+00
      -5     1     1     2     0   503  5.657922598E+01 -3.246685208E+00 -9.774260943E+00  5.770483909E+01  4.750000000E+00  0.00000E+00  9.000E+00
      21     1     1     2   512   502  3.554353216E+00 -7.935827945E+00  3.002265261E+00  9.199151518E+00  2.064765462E-07  0.00000E+00  9.000E+00
#rwgt            1           9   3.3207387559170639E-003           3      729840           0
</event>
<event>
      6   9999  3.45752E-01  4.94331E+00 -1.00000E+00  2.30236E-01
      21    -1     0     0   501   511  0.000000000E+00  0.000000000E+00  2.382227910E+01  2.382227910E+01  0.000000000E+00  0.00000E+00  9.000E+00
      21    -1     0     0   502   503  0.000000000E+00  0.000000000E+00 -3.970032000E+03  3.970032000E+03  0.000000000E+00  0.00000E+00  9.000E+00
      25     1     1     2     0     0  7.450451704E+00  1.096735217E+01 -3.688143552E+03  3.690285013E+03  1.249993027E+02  0.00000E+00  9.000E+00
       5     1     1     2   501     0  6.277946041E-01  7.170982337E-01 -1.920858065E+01  1.981010920E+01  4.750000000E+00  0.00000E+00  9.000E+00
      -5     1     1     2     0   503 -5.941569564E+00 -7.226765158E+00 -2.609295412E+02  2.611404150E+02  4.750000000E+00  0.00000E+00  9.000E+00
      21     1     1     2   502   511 -2.136676744E+00 -4.457685243E+00  2.207195326E+01  2.261874147E+01  1.192092896E-06  0.00000E+00  9.000E+00
#rwgt            1           9   3.1966904854232579E-003           3      733387           0
</event>
<event>
      6   9999 -3.45752E-01  1.38714E+01 -1.00000E+00  1.73369E-01
      21    -1     0     0   512   503  0.000000000E+00  0.000000000E+00  2.076054982E+01  2.076054982E+01  0.000000000E+00  0.00000E+00  9.000E+00
      21    -1     0     0   501   502  0.000000000E+00  0.000000000E+00 -8.893217068E+02  8.893217068E+02  0.000000000E+00  0.00000E+00  9.000E+00
      25     1     1     2     0     0  4.759872303E+01 -5.458921859E+01 -7.534277259E+02  7.671531879E+02  1.250002177E+02  0.00000E+00  9.000E+00
       5     1     1     2   501     0  3.031314742E-01  8.912933740E-02 -6.791102027E+00  8.293455219E+00  4.750000000E+00  0.00000E+00  9.000E+00
      -5     1     1     2     0   503 -3.413366545E+01  5.618890160E+01 -9.242833224E+01  1.135247060E+02  4.750000000E+00  0.00000E+00  9.000E+00
      21     1     1     2   512   502 -1.376818906E+01 -1.688812347E+00 -1.591399691E+01  2.111090748E+01  2.920019320E-07  0.00000E+00  9.000E+00
#rwgt            1           9  -4.3884862610171320E-003           3      736502           0
</event>
<event>
      6   9999  3.45752E-01  4.46761E+00 -1.00000E+00  2.38314E-01
      21    -1     0     0   511   502  0.000000000E+00  0.000000000E+00  2.577286994E+01  2.577286994E+01  0.000000000E+00  0.00000E+00  9.000E+00
      21    -1     0     0   502   503  0.000000000E+00  0.000000000E+00 -2.950356670E+02  2.950356670E+02  0.000000000E+00  0.00000E+00  9.000E+00
      25     1     1     2     0     0  2.135402305E+00 -1.139866106E+01 -2.575220961E+02  2.865096406E+02  1.250426119E+02  0.00000E+00  9.000E+00
       5     1     1     2   501     0  8.361483114E-01  4.028821825E+00 -8.091625790E+00  1.024536272E+01  4.750000000E+00  0.00000E+00  9.000E+00
      -5     1     1     2     0   503 -6.080583083E-01  3.578604077E+00 -1.265743062E+01  1.399818531E+01  4.750000000E+00  0.00000E+00  9.000E+00
      21     1     1     2   511   501 -2.363492308E+00  3.791235155E+00  9.008355471E+00  1.005534824E+01  3.576278687E-07  0.00000E+00  9.000E+00
#rwgt            1           9   4.9720960995581012E-004           3      738698           0
</event>
<event>
      6   9999  3.45752E-01  3.78902E+01 -1.00000E+00  1.41564E-01
      -4    -1     0     0     0   502  0.000000000E+00  0.000000000E+00  2.260274148E+03  2.260274148E+03  0.000000000E+00  0.00000E+00  9.000E+00
      21    -1     0     0   502   503  0.000000000E+00  0.000000000E+00 -3.196533087E+01  3.196533087E+01  0.000000000E+00  0.00000E+00  9.000E+00
      25     1     1     2     0     0  6.074212467E+00 -6.015478034E+01  1.912245368E+02  2.363174672E+02  1.249945126E+02  0.00000E+00  9.000E+00
       5     1     1     2   501     0 -2.974017067E+00  3.476991533E+01  4.989454782E+01  6.107225386E+01  4.750000000E+00  0.00000E+00  9.000E+00
      -5     1     1     2     0   503  2.549864621E+01  5.023993555E+01  2.167006420E+02  2.239552697E+02  4.750000000E+00  0.00000E+00  9.000E+00
      -4     1     1     2     0   501 -2.859884161E+01 -2.485507053E+01  1.770489090E+03  1.770894488E+03  2.157918644E-05  0.00000E+00  9.000E+00
#rwgt            1           9   4835.3172565917530                3      742905           0
</event>
<event>
      6   9999 -3.45752E-01  2.16811E+01 -1.00000E+00  1.57580E-01
      21    -1     0     0   511   503  0.000000000E+00  0.000000000E+00  1.337430213E+01  1.337430213E+01  0.000000000E+00  0.00000E+00  9.000E+00
      21    -1     0     0   501   502  0.000000000E+00  0.000000000E+00 -7.156158947E+02  7.156158947E+02  0.000000000E+00  0.00000E+00  9.000E+00
      25     1     1     2     0     0  1.440042963E+00  1.979281310E+01 -6.265020149E+02  6.391583472E+02  1.249991558E+02  0.00000E+00  9.000E+00
       5     1     1     2   501     0 -1.645538987E-02  1.093138547E+00 -3.884050908E+01  3.914515127E+01  4.750000000E+00  0.00000E+00  9.000E+00
      -5     1     1     2     0   503  2.213274358E-01  7.326537195E-01 -2.596037051E+01  2.640244505E+01  4.750000000E+00  0.00000E+00  9.000E+00
      21     1     1     2   511   502 -1.644915009E+00 -2.161860536E+01 -1.093869806E+01  2.428425330E+01  4.460403188E-07  0.00000E+00  9.000E+00
#rwgt            1           9  -5.0332078512895707E-005           3      743724           0
</event>
<event>
      6   9999  3.45752E-01  1.23910E+01 -1.00000E+00  1.77892E-01
      21    -1     0     0   501   512  0.000000000E+00  0.000000000E+00  2.739702706E+01  2.739702706E+01  0.000000000E+00  0.00000E+00  9.000E+00
      21    -1     0     0   502   503  0.000000000E+00  0.000000000E+00 -1.113542554E+03  1.113542554E+03  0.000000000E+00  0.00000E+00  9.000E+00
      25     1     1     2     0     0 -1.121984668E+01  6.094537175E-01 -1.048977599E+03  1.056458885E+03  1.250004633E+02  0.00000E+00  9.000E+00
       5     1     1     2   501     0  2.192990677E+00 -3.390141493E+00  2.174945160E+01  2.262528260E+01  4.750000000E+00  0.00000E+00  9.000E+00
      -5     1     1     2     0   503 -1.818863584E+00 -3.211679070E+00 -2.590262035E+01  2.659194217E+01  4.750000000E+00  0.00000E+00  9.000E+00
      21     1     1     2   502   512  1.084571958E+01  5.992366845E+00 -3.301475925E+01  3.526347150E+01  6.743495762E-07  0.00000E+00  9.000E+00
#rwgt            1           9   4.9653667843954663E-004           3      744887           0
</event>
<event>
      6   9999  3.45752E-01  9.05162E+00 -1.00000E+00  1.91870E-01
      21    -1     0     0   501   511  0.000000000E+00  0.000000000E+00  9.592693718E+00  9.592693718E+00  0.000000000E+00  0.00000E+00  9.000E+00
      21    -1     0     0   502   503  0.000000000E+00  0.000000000E+00 -7.960000086E+02  7.960000086E+02  0.000000000E+00  0.00000E+00  9.000E+00
      25     1     1     2     0     0 -1.008438067E+00  1.985895835E+01 -5.317545569E+02  5.466109504E+02  1.250009088E+02  0.00000E+00  9.000E+00
       5     1     1     2   501     0  8.140100416E-01  4.303984991E-01 -3.818646144E+00  6.163798633E+00  4.750000000E+00  0.00000E+00  9.000E+00
      -5     1     1     2     0   503  5.818150924E+00 -1.319672154E+01 -2.236825877E+02  2.241973838E+02  4.750000000E+00  0.00000E+00  9.000E+00
      21     1     1     2   502   511 -5.623722898E+00 -7.092635309E+00 -2.715152415E+01  2.862056950E+01  3.371747881E-07  0.00000E+00  9.000E+00
#rwgt            1           9   2.8694644098327605E-002           3      747639           0
</event>
<event>
      6   9999  3.45752E-01  3.65907E+01 -1.00000E+00  1.42467E-01
      21    -1     0     0   501   502  0.000000000E+00  0.000000000E+00  6.750329097E+01  6.750329097E+01  0.000000000E+00  0.00000E+00  9.000E+00
       2    -1     0     0   502     0  0.000000000E+00  0.000000000E+00 -1.780325433E+03  1.780325433E+03  0.000000000E+00  0.00000E+00  9.000E+00
      25     1     1     2     0     0 -2.654127866E+01  4.400007302E+01 -5.849647194E+02  6.003743926E+02  1.250009700E+02  0.00000E+00  9.000E+00
       5     1     1     2   501     0 -1.932901247E+00  3.363650439E+00  5.765228030E+01  5.797756613E+01  4.750000000E+00  0.00000E+00  9.000E+00
      -5     1     1     2     0   503 -8.115993704E+00 -4.755325839E+01 -9.406518576E+02  9.419000273E+02  4.750000000E+00  0.00000E+00  9.000E+00
       2     1     1     2   503     0  3.659017361E+01  1.895349348E-01 -2.448578455E+02  2.475767380E+02  2.697398305E-06  0.00000E+00  9.000E+00
#rwgt            1           9   3.8791221192938902E-002           3      750239           0
</event>
<event>
      6   9999  3.45752E-01  9.92672E+00 -1.00000E+00  1.87531E-01
      21    -1     0     0   501   502  0.000000000E+00  0.000000000E+00  6.481665650E+01  6.481665650E+01  0.000000000E+00  0.00000E+00  9.000E+00
      21    -1     0     0   502   511  0.000000000E+00  0.000000000E+00 -1.520077777E+03  1.520077777E+03  0.000000000E+00  0.00000E+00  9.000E+00
      25     1     1     2     0     0  2.388952184E+00 -9.051959456E+01 -1.060236038E+03  1.071412820E+03  1.250018859E+02  0.00000E+00  9.000E+00
       5     1     1     2   501     0 -4.026117569E+00  3.466091666E+00  5.260162834E+01  5.308217420E+01  4.750000000E+00  0.00000E+00  9.000E+00
      -5     1     1     2     0   503 -2.870510558E+00  9.589774790E+01 -3.754544701E+02  3.875477255E+02  4.750000000E+00  0.00000E+00  9.000E+00
      21     1     1     2   503   511  4.507675944E+00 -8.844245006E+00 -7.217224142E+01  7.285171407E+01  9.536743164E-07  0.00000E+00  9.000E+00
#rwgt            1           9   7.6691570291339923E-003           3      752355           0
</event>
<event>
      6   9999  3.45752E-01  4.45995E+01 -1.00000E+00  1.37498E-01
      21    -1     0     0   501   502  0.000000000E+00  0.000000000E+00  3.900520398E+02  3.900520398E+02  0.000000000E+00  0.00000E+00  9.000E+00
      21    -1     0     0   502   512  0.000000000E+00  0.000000000E+00 -5.662122377E+02  5.662122377E+02  0.000000000E+00  0.00000E+00  9.000E+00
      25     1     1     2     0     0  8.119622792E+01 -8.342960814E+01 -2.700879825E+02  3.195318274E+02  1.248989331E+02  0.00000E+00  9.000E+00
       5     1     1     2   501     0 -8.150722757E+00 -1.040310109E+01  3.262396830E+02  3.265418075E+02  4.750000000E+00  0.00000E+00  9.000E+00
      -5     1     1     2     0   503 -5.934492508E+01  5.138967050E+01 -5.284467473E+00  7.882389525E+01  4.750000000E+00  0.00000E+00  9.000E+00
      21     1     1     2   503   512 -1.370058009E+01  4.244303872E+01 -2.270274309E+02  2.313667474E+02  2.697398305E-06  0.00000E+00  9.000E+00
#rwgt            1           9   1.4805484951457375E-002           3      757636           0
</event>
<event>
      6   9999  3.45752E-01  1.41477E+01 -1.00000E+00  1.72603E-01
      21    -1     0     0   501   511  0.000000000E+00  0.000000000E+00  1.452449478E+01  1.452449478E+01  0.000000000E+00  0.00000E+00  9.000E+00
      21    -1     0     0   502   503  0.000000000E+00  0.000000000E+00 -8.825035296E+02  8.825035296E+02  0.000000000E+00  0.00000E+00  9.000E+00
      25     1     1     2     0     0 -7.341371782E+00 -1.171585564E+01 -8.254642508E+02  8.349893908E+02  1.249995858E+02  0.00000E+00  9.000E+00
       5     1     1     2   501     0 -6.546453074E+00 -9.637165695E-01  4.765505387E+00  9.437019607E+00  4.750000000E+00  0.00000E+00  9.000E+00
      -5     1     1     2     0   503  7.584350452E-01  7.409337339E+00 -2.024232174E+01  2.208591391E+01  4.750000000E+00  0.00000E+00  9.000E+00
      21     1     1     2   502   511  1.312938981E+01  5.270234868E+00 -2.703796767E+01  3.051570003E+01  7.539457465E-07  0.00000E+00  9.000E+00
#rwgt            1           9   9.5333414596878479E-006           3      760351           0
</event>
<event>
      6   9999  3.45752E-01  1.60313E+01 -1.00000E+00  1.67906E-01
      21    -1     0     0   512   502  0.000000000E+00  0.000000000E+00  1.267069334E+02  1.267069334E+02  0.000000000E+00  0.00000E+00  9.000E+00
      21    -1     0     0   502   503  0.000000000E+00  0.000000000E+00 -1.002080264E+03  1.002080264E+03  0.000000000E+00  0.00000E+00  9.000E+00
      25     1     1     2     0     0 -1.727276317E+01 -9.200606154E+01 -4.960895942E+02  5.200894216E+02  1.249986291E+02  0.00000E+00  9.000E+00
       5     1     1     2   501     0  1.993385219E+00 -2.525686212E+00  6.245561588E+00  8.480696612E+00  4.750000000E+00  0.00000E+00  9.000E+00
      -5     1     1     2     0   503  1.563755561E+01  7.850447313E+01 -4.889902580E+02  4.955214630E+02  4.750000000E+00  0.00000E+00  9.000E+00
      21     1     1     2   512   501 -3.581776590E-01  1.602727462E+01  1.034609600E+02  1.046956162E+02  3.303624740E-06  0.00000E+00  9.000E+00
#rwgt            1           9   8.5209070556398160E-004           3      762302           0
</event>
<event>
      6   9999  3.45752E-01  1.46786E+01 -1.00000E+00  1.71191E-01
      21    -1     0     0   501   502  0.000000000E+00  0.000000000E+00  4.376609113E+01  4.376609113E+01  0.000000000E+00  0.00000E+00  9.000E+00
      21    -1     0     0   511   503  0.000000000E+00  0.000000000E+00 -1.699369084E+03  1.699369084E+03  0.000000000E+00  0.00000E+00  9.000E+00
      25     1     1     2     0     0 -1.885098986E+01 -1.029748969E+01 -1.268215822E+03  1.274545671E+03  1.250355909E+02  0.00000E+00  9.000E+00
       5     1     1     2   501     0  4.785695555E+00  9.609803484E-01  3.981219520E+01  4.039058989E+01  4.750000000E+00  0.00000E+00  9.000E+00
      -5     1     1     2     0   503  2.069610244E+00  8.768791506E-01 -1.838913684E+01  1.912524659E+01  4.750000000E+00  0.00000E+00  9.000E+00
      21     1     1     2   511   502  1.199568406E+01  8.459630187E+00 -4.088102300E+02  4.090736681E+02  5.394796609E-06  0.00000E+00  9.000E+00
#rwgt            1           9   1.9099424704745646E-004           3      764296           0
</event>
<event>
      6   9999 -3.45752E-01  1.81873E+01 -1.00000E+00  1.63425E-01
      21    -1     0     0   501   502  0.000000000E+00  0.000000000E+00  1.881797481E+01  1.881797481E+01  0.000000000E+00  0.00000E+00  9.000E+00
      21    -1     0     0   502   512  0.000000000E+00  0.000000000E+00 -2.671460692E+03  2.671460692E+03  0.000000000E+00  0.00000E+00  9.000E+00
      25     1     1     2     0     0 -7.596948388E+01  8.160234438E+01 -1.761654999E+03  1.769599971E+03  1.250016701E+02  0.00000E+00  9.000E+00
       5     1     1     2   501     0  2.278070580E+00  6.749678944E+00  9.491544108E+00  1.278278847E+01  4.750000000E+00  0.00000E+00  9.000E+00
      -5     1     1     2     0   503  6.061894029E+01 -7.570732969E+01 -7.871413899E+02  7.931080544E+02  4.750000000E+00  0.00000E+00  9.000E+00
      21     1     1     2   503   512  1.307247301E+01 -1.264469363E+01 -1.133378730E+02  1.147878534E+02  2.336015456E-06  0.00000E+00  9.000E+00
#rwgt            1           9  -1.9423588998013448E-002           3      767130           0
</event>
<event>
      6   9999  3.45752E-01  1.28399E+01 -1.00000E+00  1.76439E-01
      21    -1     0     0   501   502  0.000000000E+00  0.000000000E+00  1.301672536E+01  1.301672536E+01  0.000000000E+00  0.00000E+00  9.000E+00
      21    -1     0     0   502   511  0.000000000E+00  0.000000000E+00 -1.189739251E+03  1.189739251E+03  0.000000000E+00  0.00000E+00  9.000E+00
      25     1     1     2     0     0  2.507809654E+01  2.453459507E+01 -8.418341140E+02  8.517857996E+02  1.249940627E+02  0.00000E+00  9.000E+00
       5     1     1     2   501     0  2.265100125E+00  8.309135082E-01  3.631109539E-02  5.327749462E+00  4.750000000E+00  0.00000E+00  9.000E+00
      -5     1     1     2     0   503 -1.472206495E+01 -2.300519675E+01 -3.156297402E+01  4.200907168E+01  4.750000000E+00  0.00000E+00  9.000E+00
      21     1     1     2   503   511 -1.262113171E+01 -2.360311825E+00 -3.033617483E+02  3.036333551E+02  3.814697266E-06  0.00000E+00  9.000E+00
#rwgt            1           9   3.0866237811753611E-004           3      769994           0
</event>
<event>
      6   9999  3.45752E-01  5.80554E+00 -1.00000E+00  2.16071E-01
      21    -1     0     0   512   502  0.000000000E+00  0.000000000E+00  3.464551168E+01  3.464551168E+01  0.000000000E+00  0.00000E+00  9.000E+00
      21    -1     0     0   502   503  0.000000000E+00  0.000000000E+00 -8.572236652E+02  8.572236652E+02  0.000000000E+00  0.00000E+00  9.000E+00
      25     1     1     2     0     0 -1.608716614E+01 -1.698452251E+01 -6.573269699E+02  6.695150210E+02  1.249973883E+02  0.00000E+00  9.000E+00
       5     1     1     2   501     0  3.707205423E-01  2.854457755E+00  3.471775666E+00  6.549892294E+00  4.750000000E+00  0.00000E+00  9.000E+00
      -5     1     1     2     0   503  1.595885310E+01  1.993054196E+01 -1.910130787E+02  1.927705118E+02  4.750000000E+00  0.00000E+00  9.000E+00
      21     1     1     2   512   501 -2.424075036E-01 -5.800477201E+00  2.229011941E+01  2.303375177E+01  7.539457465E-07  0.00000E+00  9.000E+00
#rwgt            1           9   9.3528836505301235E-002           3      771942           0
</event>
<event>
      6   9999  3.45752E-01  1.71588E+01 -1.00000E+00  1.65461E-01
      21    -1     0     0   501   502  0.000000000E+00  0.000000000E+00  9.538747274E+01  9.538747274E+01  0.000000000E+00  0.00000E+00  9.000E+00
      21    -1     0     0   511   503  0.000000000E+00  0.000000000E+00 -5.908194561E+02  5.908194561E+02  0.000000000E+00  0.00000E+00  9.000E+00
      25     1     1     2     0     0  4.959433586E+01 -1.025548658E+02 -2.025095118E+02  2.638399930E+02  1.249973634E+02  0.00000E+00  9.000E+00
       5     1     1     2   501     0  1.594259853E+00 -1.338590161E+00  5.366133027E+01  5.391135645E+01  4.750000000E+00  0.00000E+00  9.000E+00
      -5     1     1     2     0   503 -5.744366779E+01  8.791537938E+01 -2.650689535E+02  2.851543468E+02  4.750000000E+00  0.00000E+00  9.000E+00
      21     1     1     2   511   502  6.255072082E+00  1.597807659E+01 -8.151484828E+01  8.330123258E+01  0.000000000E+00  0.00000E+00  9.000E+00
#rwgt            1           9   7.9519085803742527E-003           3      775822           0
</event>
<event>
      6   9999  3.45752E-01  2.19032E+01 -1.00000E+00  1.57254E-01
      21    -1     0     0   501   502  0.000000000E+00  0.000000000E+00  4.592008362E+01  4.592008362E+01  0.000000000E+00  0.00000E+00  9.000E+00
      21    -1     0     0   502   512  0.000000000E+00  0.000000000E+00 -1.420634588E+03  1.420634588E+03  0.000000000E+00  0.00000E+00  9.000E+00
      25     1     1     2     0     0  9.716604879E+01 -1.123259287E+01 -5.349620403E+02  5.580862263E+02  1.253333125E+02  0.00000E+00  9.000E+00
       5     1     1     2   501     0  7.261576534E+00 -2.655567067E+00  3.048081541E+01  3.180291085E+01  4.750000000E+00  0.00000E+00  9.000E+00
      -5     1     1     2     0   503 -8.325084558E+01  8.293918948E+00 -7.152740210E+02  7.201659392E+02  4.750000000E+00  0.00000E+00  9.000E+00
      21     1     1     2   503   512 -2.117677974E+01  5.594240985E+00 -1.549592584E+02  1.564995952E+02  1.907348633E-06  0.00000E+00  9.000E+00
#rwgt            1           9   9.4693559738750696E-003           3      778203           0
</event>
<event>
      6   9999 -3.45752E-01  6.42495E+00 -1.00000E+00  2.10000E-01
      21    -1     0     0   511   502  0.000000000E+00  0.000000000E+00  4.111870508E+01  4.111870508E+01  0.000000000E+00  0.00000E+00  9.000E+00
      21    -1     0     0   502   503  0.000000000E+00  0.000000000E+00 -8.205790695E+02  8.205790695E+02  0.000000000E+00  0.00000E+00  9.000E+00
      25     1     1     2     0     0  3.727022461E+00  1.057215730E+00 -7.870850974E+02  7.969569862E+02  1.249899158E+02  0.00000E+00  9.000E+00
       5     1     1     2   501     0  6.855560700E-01  3.346687415E+00  4.693041150E+00  7.500495918E+00  4.750000000E+00  0.00000E+00  9.000E+00
      -5     1     1     2     0   503 -6.104362316E-01  7.752617748E-01 -2.658928052E+01  2.702824452E+01  4.750000000E+00  0.00000E+00  9.000E+00
      21     1     1     2   511   501 -3.802142300E+00 -5.179164920E+00  2.952097228E+01  3.021204792E+01  1.994752947E-06  0.00000E+00  9.000E+00
#rwgt            1           9  -3.0306497811783099E-005           3      780596           0
</event>
<event>
      6   9999  3.45752E-01  2.83102E+01 -1.00000E+00  1.49485E-01
      21    -1     0     0   512   502  0.000000000E+00  0.000000000E+00  4.986860986E+00  4.986860986E+00  0.000000000E+00  0.00000E+00  9.000E+00
      21    -1     0     0   502   503  0.000000000E+00  0.000000000E+00 -1.546105443E+03  1.546105443E+03  0.000000000E+00  0.00000E+00  9.000E+00
      25     1     1     2     0     0  3.161564294E+01  1.927202731E+01 -1.203187202E+03  1.210229391E+03  1.249991051E+02  0.00000E+00  9.000E+00
       5     1     1     2   501     0 -1.082277486E+00 -2.087855909E+00 -2.706356137E+01  2.757769607E+01  4.750000000E+00  0.00000E+00  9.000E+00
      -5     1     1     2     0   503 -3.518613702E+00 -8.718340295E+00 -8.442480203E+01  8.507937352E+01  4.750000000E+00  0.00000E+00  9.000E+00
      21     1     1     2   512   501 -2.701475176E+01 -8.465831105E+00 -2.264430166E+02  2.282058433E+02  0.000000000E+00  0.00000E+00  9.000E+00
#rwgt            1           9   2.4019092104218608E-002           3      784359           0
</event>
<event>
      6   9999  3.45752E-01  4.02688E+01 -1.00000E+00  1.40017E-01
      21    -1     0     0   511   502  0.000000000E+00  0.000000000E+00  1.351987650E+02  1.351987650E+02  0.000000000E+00  0.00000E+00  9.000E+00
      21    -1     0     0   502   503  0.000000000E+00  0.000000000E+00 -1.063460843E+02  1.063460843E+02  0.000000000E+00  0.00000E+00  9.000E+00
      25     1     1     2     0     0  2.675801046E+01  1.730389035E+01 -5.148344396E+01  1.388899215E+02  1.249977982E+02  0.00000E+00  9.000E+00
       5     1     1     2   501     0  4.397255174E+00  4.201350793E+00  2.555642212E+01  2.669607486E+01  4.750000000E+00  0.00000E+00  9.000E+00
      -5     1     1     2     0   503  5.896437880E-01  3.270532718E+00 -2.187503339E+00  6.196106432E+00  4.750000000E+00  0.00000E+00  9.000E+00
      21     1     1     2   511   501 -3.174490942E+01 -2.477577386E+01  5.696720589E+01  6.976274645E+01  0.000000000E+00  0.00000E+00  9.000E+00
#rwgt            1           9   1.3700600885133958E-002           3      785460           0
</event>
<event>
      6   9999  3.45752E-01  7.91979E+00 -1.00000E+00  1.98535E-01
      21    -1     0     0   501   502  0.000000000E+00  0.000000000E+00  1.296478177E+01  1.296478177E+01  0.000000000E+00  0.00000E+00  9.000E+00
      -2    -1     0     0     0   503  0.000000000E+00  0.000000000E+00 -1.072385189E+03  1.072385189E+03  0.000000000E+00  0.00000E+00  9.000E+00
      25     1     1     2     0     0  7.473425775E+00 -7.706146620E+00 -8.243066589E+02  8.338000142E+02  1.250030357E+02  0.00000E+00  9.000E+00
       5     1     1     2   501     0  5.173944812E-01  1.426001191E+00  7.003963976E+00  8.597626872E+00  4.750000000E+00  0.00000E+00  9.000E+00
      -5     1     1     2     0   503 -3.405344539E+00 -1.771422338E-01 -2.440826040E+01  2.509887302E+01  4.750000000E+00  0.00000E+00  9.000E+00
      -2     1     1     2     0   502 -4.585475717E+00  6.457287662E+00 -2.177094518E+02  2.178534566E+02  2.697398305E-06  0.00000E+00  9.000E+00
#rwgt            1           9   3.7779898603988700E-008           3      786466           0
</event>
<event>
      6   9999  3.45752E-01  3.31850E+01 -1.00000E+00  1.45058E-01
      21    -1     0     0   511   502  0.000000000E+00  0.000000000E+00  6.403918631E+01  6.403918631E+01  0.000000000E+00  0.00000E+00  9.000E+00
      21    -1     0     0   502   503  0.000000000E+00  0.000000000E+00 -8.211220828E+02  8.211220828E+02  0.000000000E+00  0.00000E+00  9.000E+00
      25     1     1     2     0     0  2.237750536E+01  2.435414841E+01 -5.247300681E+02  5.404260165E+02  1.249990303E+02  0.00000E+00  9.000E+00
       5     1     1     2   501     0 -2.484269813E+01  2.175384968E+01 -1.034609673E+02  1.087065954E+02  4.750000000E+00  0.00000E+00  9.000E+00
      -5     1     1     2     0   503  6.208729857E+00 -1.313480376E+01 -1.769595649E+02  1.776184718E+02  4.750000000E+00  0.00000E+00  9.000E+00
      21     1     1     2   511   501 -3.743537091E+00 -3.297319433E+01  4.806770385E+01  5.841018548E+01  2.611744678E-06  0.00000E+00  9.000E+00
#rwgt            1           9   4.6059364743095722E-003           3      789405           0
</event>
<event>
      6   9999  3.45752E-01  2.50998E+01 -1.00000E+00  1.53029E-01
      21    -1     0     0   502   503  0.000000000E+00  0.000000000E+00  6.046798391E+01  6.046798391E+01  0.000000000E+00  0.00000E+00  9.000E+00
      21    -1     0     0   512   502  0.000000000E+00  0.000000000E+00 -1.463607916E+03  1.463607916E+03  0.000000000E+00  0.00000E+00  9.000E+00
      25     1     1     2     0     0  5.092445252E+01  3.209691544E+01 -2.688147012E+01  1.413225919E+02  1.250037987E+02  0.00000E+00  9.000E+00
       5     1     1     2   501     0 -3.063791205E+01 -5.093041727E+01 -1.244625014E+03  1.246052398E+03  4.750000000E+00  0.00000E+00  9.000E+00
      -5     1     1     2     0   503 -3.252170145E+00  3.989635070E-01 -5.097406884E+00  7.699470077E+00  4.750000000E+00  0.00000E+00  9.000E+00
      21     1     1     2   512   501 -1.703437033E+01  1.843453833E+01 -1.265360406E+02  1.290014400E+02  1.348699152E-06  0.00000E+00  9.000E+00
#rwgt            1           9  0.67212446841990703                3      790557           0
</event>
<event>
      6   9999  3.45752E-01  3.17130E+01 -1.00000E+00  1.46295E-01
      21    -1     0     0   501   502  0.000000000E+00  0.000000000E+00  1.103582769E+01  1.103582769E+01  0.000000000E+00  0.00000E+00  9.000E+00
      21    -1     0     0   502   511  0.000000000E+00  0.000000000E+00 -1.649126332E+03  1.649126332E+03  0.000000000E+00  0.00000E+00  9.000E+00
      25     1     1     2     0     0 -7.660858866E+00  1.279418576E+01 -7.216041908E+02  7.325020397E+02  1.249970000E+02  0.00000E+00  9.000E+00
       5     1     1     2   501     0 -5.139366236E+00  1.055778521E+00  8.701281632E-02  7.077981691E+00  4.750000000E+00  0.00000E+00  9.000E+00
      -5     1     1     2     0   503 -1.874024709E+01 -1.715375167E+01 -9.666242665E+01  1.000581595E+02  4.750000000E+00  0.00000E+00  9.000E+00
      21     1     1     2   503   511  3.154047219E+01  3.303787388E+00 -8.199108994E+02  8.205239786E+02  0.000000000E+00  0.00000E+00  9.000E+00
#rwgt            1           9   6.7151527545452282E-004           3      792708           0
</event>
<event>
      6   9999  3.45752E-01  5.68862E+00 -1.00000E+00  2.17333E-01
      21    -1     0     0   501   502  0.000000000E+00  0.000000000E+00  3.242895277E+00  3.242895277E+00  0.000000000E+00  0.00000E+00  9.000E+00
      21    -1     0     0   512   503  0.000000000E+00  0.000000000E+00 -2.498189244E+03  2.498189244E+03  0.000000000E+00  0.00000E+00  9.000E+00
      25     1     1     2     0     0  3.410504413E+01 -1.412297470E+00 -1.634196001E+03  1.639324860E+03  1.249971122E+02  0.00000E+00  9.000E+00
       5     1     1     2   501     0  1.824971035E-01  4.260996441E-01 -1.762957675E+01  1.826415458E+01  4.750000000E+00  0.00000E+00  9.000E+00
      -5     1     1     2     0   503 -2.864705841E+01  1.724658399E+00 -6.760777857E+02  6.767033052E+02  4.750000000E+00  0.00000E+00  9.000E+00
      21     1     1     2   512   502 -5.640482823E+00 -7.384605732E-01 -1.670429858E+02  1.671398202E+02  0.000000000E+00  0.00000E+00  9.000E+00
#rwgt            1           9   6.6534571509848425E-004           3      793641           0
</event>
<event>
      6   9999 -3.45752E-01  1.34986E+01 -1.00000E+00  1.74439E-01
      21    -1     0     0   511   502  0.000000000E+00  0.000000000E+00  3.250301329E+01  3.250301329E+01  0.000000000E+00  0.00000E+00  9.000E+00
      21    -1     0     0   502   503  0.000000000E+00  0.000000000E+00 -8.356244288E+02  8.356244288E+02  0.000000000E+00  0.00000E+00  9.000E+00
      25     1     1     2     0     0 -1.965377753E+01  2.401193069E+01 -6.451298130E+02  6.578600365E+02  1.249980328E+02  0.00000E+00  9.000E+00
       5     1     1     2   501     0  1.295323056E+00  4.524028516E-01  6.887955149E-01  4.991940446E+00  4.750000000E+00  0.00000E+00  9.000E+00
      -5     1     1     2     0   503  3.064791290E+01 -3.004829203E+01 -1.771846363E+02  1.823709195E+02  4.750000000E+00  0.00000E+00  9.000E+00
      21     1     1     2   511   501 -1.228945843E+01  5.583958494E+00  1.850423827E+01  2.290454572E+01  9.830249847E-07  0.00000E+00  9.000E+00
#rwgt            1           9  -8.0531279633942350E-005           3      798171           0
</event>
<event>
      6   9999  3.45752E-01  3.98769E+00 -1.00000E+00  2.48127E-01
      21    -1     0     0   501   512  0.000000000E+00  0.000000000E+00  6.802415501E+01  6.802415501E+01  0.000000000E+00  0.00000E+00  9.000E+00
      21    -1     0     0   502   503  0.000000000E+00  0.000000000E+00 -1.973663443E+03  1.973663443E+03  0.000000000E+00  0.00000E+00  9.000E+00
      25     1     1     2     0     0  8.580394657E-01 -4.786164841E-02 -1.879479017E+03  1.883631098E+03  1.249960033E+02  0.00000E+00  9.000E+00
       5     1     1     2   501     0  2.094893759E+00  4.368044074E-01 -4.457956269E+00  6.856766880E+00  4.750000000E+00  0.00000E+00  9.000E+00
      -5     1     1     2     0   503  4.034135137E-01  1.764338345E+00 -8.631478330E+01  8.646432761E+01  4.750000000E+00  0.00000E+00  9.000E+00
      21     1     1     2   502   512 -3.356346739E+00 -2.153281104E+00  6.461246820E+01  6.473540554E+01  0.000000000E+00  0.00000E+00  9.000E+00
#rwgt            1           9   9.2958786429518427E-008           3      800248           0
</event>
<event>
      6   9999  3.45752E-01  4.41064E+01 -1.00000E+00  1.37768E-01
      -3    -1     0     0     0   502  0.000000000E+00  0.000000000E+00  6.340158795E+01  6.340158795E+01  0.000000000E+00  0.00000E+00  9.000E+00
      21    -1     0     0   502   503  0.000000000E+00  0.000000000E+00 -8.477328101E+02  8.477328101E+02  0.000000000E+00  0.00000E+00  9.000E+00
      25     1     1     2     0     0 -2.198978982E+01  2.412745595E+01 -7.735966331E+02  7.843112195E+02  1.250066131E+02  0.00000E+00  9.000E+00
       5     1     1     2   501     0  1.146651335E-01  3.189159222E+00 -2.435252574E+00  6.219070649E+00  4.750000000E+00  0.00000E+00  9.000E+00
      -5     1     1     2     0   503  3.257946477E+01  1.547110630E+01 -4.870300319E+01  6.078915754E+01  4.750000000E+00  0.00000E+00  9.000E+00
      -3     1     1     2     0   501 -1.070434009E+01 -4.278772148E+01  4.040366669E+01  5.981495037E+01  2.523185073E-06  0.00000E+00  9.000E+00
#rwgt            1           9   3.6138760743537573E-003           3      804515           0
</event>
<event>
      6   9999 -3.45752E-01  1.33511E+01 -1.00000E+00  1.74874E-01
      21    -1     0     0   502   503  0.000000000E+00  0.000000000E+00  1.211018441E+01  1.211018441E+01  0.000000000E+00  0.00000E+00  9.000E+00
      21    -1     0     0   511   502  0.000000000E+00  0.000000000E+00 -9.431461932E+02  9.431461932E+02  0.000000000E+00  0.00000E+00  9.000E+00
      25     1     1     2     0     0  2.484999491E+01  3.400324848E+01 -6.046244886E+02  6.188455340E+02  1.250011185E+02  0.00000E+00  9.000E+00
       5     1     1     2   501     0  1.458372796E+00  3.587221118E+00 -1.281366208E+02  1.282830897E+02  4.750000000E+00  0.00000E+00  9.000E+00
      -5     1     1     2     0   503 -1.295994618E+01 -3.785787079E+01 -8.498871884E+01  9.405755374E+01  4.750000000E+00  0.00000E+00  9.000E+00
      21     1     1     2   511   501 -1.334842153E+01  2.674011933E-01 -1.132861806E+02  1.140702002E+02  2.336015456E-06  0.00000E+00  9.000E+00
#rwgt            1           9 -0.63510218125601370                3      806284           0
</event>
<event>
      6   9999  3.45752E-01  2.44197E+01 -1.00000E+00  1.53862E-01
      21    -1     0     0   501   502  0.000000000E+00  0.000000000E+00  4.255609277E+02  4.255609277E+02  0.000000000E+00  0.00000E+00  9.000E+00
      21    -1     0     0   502   512  0.000000000E+00  0.000000000E+00 -1.210401295E+02  1.210401295E+02  0.000000000E+00  0.00000E+00  9.000E+00
      25     1     1     2     0     0  3.625721696E+01 -4.304754025E+01  3.318645099E+02  3.590706335E+02  1.250199601E+02  0.00000E+00  9.000E+00
       5     1     1     2   501     0 -1.575971988E-01 -8.672400660E-01  3.446833411E+01  3.480525102E+01  4.750000000E+00  0.00000E+00  9.000E+00
      -5     1     1     2     0   503 -3.496484603E+01  1.952144372E+01  3.468230664E+01  5.318883451E+01  4.750000000E+00  0.00000E+00  9.000E+00
      21     1     1     2   503   512 -1.134773730E+00  2.439333659E+01 -9.649435236E+01  9.953633818E+01  0.000000000E+00  0.00000E+00  9.000E+00
#rwgt            1           9   1.2727910233949582                3      808224           0
</event>
<event>
      6   9999  3.45752E-01  6.29230E+00 -1.00000E+00  2.11220E-01
      21    -1     0     0   501   502  0.000000000E+00  0.000000000E+00  2.078729524E+01  2.078729524E+01  0.000000000E+00  0.00000E+00  9.000E+00
       2    -1     0     0   502     0  0.000000000E+00  0.000000000E+00 -1.163926180E+03  1.163926180E+03  0.000000000E+00  0.00000E+00  9.000E+00
      25     1     1     2     0     0 -2.552126976E+01 -4.626158206E+01 -8.690791344E+02  8.796105011E+02  1.249984906E+02  0.00000E+00  9.000E+00
       5     1     1     2   501     0  1.187832554E+00  1.527485966E-02  1.039591263E+01  1.149124357E+01  4.750000000E+00  0.00000E+00  9.000E+00
      -5     1     1     2     0   503  1.819094825E+01  4.761116315E+01 -1.407664469E+02  1.497848074E+02  4.750000000E+00  0.00000E+00  9.000E+00
       2     1     1     2   503     0  6.142488955E+00 -1.364855950E+00 -1.436892160E+02  1.438269231E+02  3.303624740E-06  0.00000E+00  9.000E+00
#rwgt            1           9   1.1054380500185609E-005           3      809393           0
</event>
<event>
      6   9999 -3.45752E-01  1.16107E+01 -1.00000E+00  1.80611E-01
      21    -1     0     0   501   502  0.000000000E+00  0.000000000E+00  2.059793986E+01  2.059793986E+01  0.000000000E+00  0.00000E+00  9.000E+00
      21    -1     0     0   502   511  0.000000000E+00  0.000000000E+00 -9.786279645E+02  9.786279645E+02  0.000000000E+00  0.00000E+00  9.000E+00
      25     1     1     2     0     0  1.589566589E+01  2.697732740E+00 -8.759883615E+02  8.850088847E+02  1.250006667E+02  0.00000E+00  9.000E+00
       5     1     1     2   501     0  2.307499064E+00 -7.259746050E+00  1.251581088E+01  1.540248314E+01  4.750000000E+00  0.00000E+00  9.000E+00
      -5     1     1     2     0   503 -1.255461598E+01 -5.582043464E+00 -3.144386866E+01  3.464183840E+01  4.750000000E+00  0.00000E+00  9.000E+00
      21     1     1     2   503   511 -5.648548968E+00  1.014405677E+01 -6.311360543E+01  6.417269812E+01  9.536743164E-07  0.00000E+00  9.000E+00
#rwgt            1           9  -3.4510407096281765E-004           3      813696           0
</event>
<event>
      6   9999 -3.45752E-01  1.61592E+01 -1.00000E+00  1.67617E-01
      21    -1     0     0   501   502  0.000000000E+00  0.000000000E+00  2.880001110E+01  2.880001110E+01  0.000000000E+00  0.00000E+00  9.000E+00
      21    -1     0     0   502   512  0.000000000E+00  0.000000000E+00 -1.256160248E+03  1.256160248E+03  0.000000000E+00  0.00000E+00  9.000E+00
      25     1     1     2     0     0  2.268160138E+01  1.573921768E+01 -1.023148776E+03  1.031119849E+03  1.249501796E+02  0.00000E+00  9.000E+00
       5     1     1     2   501     0 -2.173485673E+00  7.652647438E+00  1.999098925E+01  2.203381955E+01  4.750000000E+00  0.00000E+00  9.000E+00
      -5     1     1     2     0   503 -1.052512339E+01 -1.068518306E+01 -1.423030692E+01  2.121356864E+01  4.750000000E+00  0.00000E+00  9.000E+00
      21     1     1     2   503   512 -9.982992312E+00 -1.270668206E+01 -2.099721430E+02  2.105930216E+02  2.697398305E-06  0.00000E+00  9.000E+00
#rwgt            1           9  -3.6313711436418128E-005           3      816297           0
</event>
<event>
      6   9999  3.45752E-01  3.03753E+01 -1.00000E+00  1.47490E-01
      21    -1     0     0   511   502  0.000000000E+00  0.000000000E+00  2.325651655E+01  2.325651655E+01  0.000000000E+00  0.00000E+00  9.000E+00
      21    -1     0     0   502   503  0.000000000E+00  0.000000000E+00 -7.589413264E+02  7.589413264E+02  0.000000000E+00  0.00000E+00  9.000E+00
      25     1     1     2     0     0 -1.512116897E+01  2.664735461E+01 -6.404625953E+02  6.532654114E+02  1.249985220E+02  0.00000E+00  9.000E+00
       5     1     1     2   501     0 -1.146508664E+01 -5.621234505E+00 -4.162791472E+01  4.380059672E+01  4.750000000E+00  0.00000E+00  9.000E+00
      -5     1     1     2     0   503 -1.620247022E+00 -9.754361104E+00 -5.364640783E+01  5.475648212E+01  4.750000000E+00  0.00000E+00  9.000E+00
      21     1     1     2   511   501  2.820650263E+01 -1.127175900E+01  5.210790560E-02  3.037535278E+01  3.224400964E-07  0.00000E+00  9.000E+00
#rwgt            1           9  0.35271822678232151                3      819177           0
</event>
<event>
      6   9999  3.45752E-01  1.65643E+01 -1.00000E+00  1.66721E-01
      21    -1     0     0   501   502  0.000000000E+00  0.000000000E+00  4.397545122E+02  4.397545122E+02  0.000000000E+00  0.00000E+00  9.000E+00
      21    -1     0     0   512   503  0.000000000E+00  0.000000000E+00 -1.065840108E+02  1.065840108E+02  0.000000000E+00  0.00000E+00  9.000E+00
      25     1     1     2     0     0  4.073226207E+01  3.568938322E+01  2.286668315E+02  2.661681474E+02  1.249964544E+02  0.00000E+00  9.000E+00
       5     1     1     2   501     0 -8.703154911E-01  4.999430580E+00  1.742649394E+02  1.744035073E+02  4.750000000E+00  0.00000E+00  9.000E+00
      -5     1     1     2     0   503 -2.729390077E+01 -2.989906556E+01 -7.743762486E+01  8.751033873E+01  4.750000000E+00  0.00000E+00  9.000E+00
      21     1     1     2   512   502 -1.256804581E+01 -1.078974824E+01  7.676355355E+00  1.825652963E+01  5.462855929E-07  0.00000E+00  9.000E+00
#rwgt            1           9   1.4715129361398253E-003           3      820472           0
</event>
<event>
      6   9999  3.45752E-01  1.45125E+01 -1.00000E+00  1.71624E-01
      21    -1     0     0   501   502  0.000000000E+00  0.000000000E+00  2.130323959E+02  2.130323959E+02  0.000000000E+00  0.00000E+00  9.000E+00
      21    -1     0     0   511   503  0.000000000E+00  0.000000000E+00 -2.963635787E+02  2.963635787E+02  0.000000000E+00  0.00000E+00  9.000E+00
      25     1     1     2     0     0  1.125145613E+02 -2.568558306E+01 -2.074527985E+02  2.682928747E+02  1.250005094E+02  0.00000E+00  9.000E+00
       5     1     1     2   501     0 -5.865498962E-01 -3.634886885E+00  1.133142855E+02  1.134735486E+02  4.750000000E+00  0.00000E+00  9.000E+00
      -5     1     1     2     0   503 -9.932189626E+01  3.651060096E+01  2.332520341E+01  1.084642368E+02  4.750000000E+00  0.00000E+00  9.000E+00
      21     1     1     2   511   502 -1.260611516E+01 -7.190131013E+00 -1.251787324E+01  1.916531434E+01  4.129530925E-07  0.00000E+00  9.000E+00
#rwgt            1           9   4.4784079327708773E-003           3      823152           0
</event>
<event>
      6   9999 -3.45752E-01  8.89329E+00 -1.00000E+00  1.92724E-01
      21    -1     0     0   512   502  0.000000000E+00  0.000000000E+00  3.896496423E+01  3.896496423E+01  0.000000000E+00  0.00000E+00  9.000E+00
      21    -1     0     0   502   503  0.000000000E+00  0.000000000E+00 -8.882686366E+02  8.882686366E+02  0.000000000E+00  0.00000E+00  9.000E+00
      25     1     1     2     0     0 -2.583136049E+01  4.441760701E+01 -6.212144990E+02  6.357457798E+02  1.250002389E+02  0.00000E+00  9.000E+00
       5     1     1     2   501     0  2.216969304E+00 -2.491088372E-01  2.082439623E+00  5.645889026E+00  4.750000000E+00  0.00000E+00  9.000E+00
      -5     1     1     2     0   503  3.182404349E+01 -4.758789881E+01 -2.539963938E+02  2.604114214E+02  4.750000000E+00  0.00000E+00  9.000E+00
      21     1     1     2   512   501 -8.209652307E+00  3.419400632E+00  2.382478077E+01  2.543051062E+01  1.581489940E-06  0.00000E+00  9.000E+00
#rwgt            1           9  -5.1177146378191355E-005           3      826173           0
</event>
<event>
      6   9999  3.45752E-01  3.73382E+01 -1.00000E+00  1.41943E-01
      21    -1     0     0   501   511  0.000000000E+00  0.000000000E+00  1.036928825E+03  1.036928825E+03  0.000000000E+00  0.00000E+00  9.000E+00
      21    -1     0     0   502   503  0.000000000E+00  0.000000000E+00 -8.260662402E+02  8.260662402E+02  0.000000000E+00  0.00000E+00  9.000E+00
      25     1     1     2     0     0  1.001329992E+02 -3.487171714E+01 -7.452501648E+02  7.630795627E+02  1.250997868E+02  0.00000E+00  9.000E+00
       5     1     1     2   501     0  9.492959985E+00 -1.577508354E+01  5.035799691E+01  5.382805870E+01  4.750000000E+00  0.00000E+00  9.000E+00
      -5     1     1     2     0   503 -8.297532177E+01  2.449566459E+01 -4.290940165E+01  9.668878351E+01  4.750000000E+00  0.00000E+00  9.000E+00
      21     1     1     2   502   511 -2.665063741E+01  2.615113610E+01  9.486641543E+02  9.493986602E+02  0.000000000E+00  0.00000E+00  9.000E+00
#rwgt            1           9   1.0027841706502494E-004           3      828590           0
</event>
<event>
      6   9999  3.45752E-01  1.97041E+01 -1.00000E+00  1.60706E-01
      21    -1     0     0   501   502  0.000000000E+00  0.000000000E+00  2.117792205E+01  2.117792205E+01  0.000000000E+00  0.00000E+00  9.000E+00
      21    -1     0     0   502   512  0.000000000E+00  0.000000000E+00 -1.340185229E+03  1.340185229E+03  0.000000000E+00  0.00000E+00  9.000E+00
      25     1     1     2     0     0 -8.738494169E+00 -4.044839856E+01 -1.099813715E+03  1.107667734E+03  1.250006626E+02  0.00000E+00  9.000E+00
       5     1     1     2   501     0  1.086215152E+01 -2.128133309E+00  9.703444956E+00  1.546721148E+01  4.750000000E+00  0.00000E+00  9.000E+00
      -5     1     1     2     0   503  1.679461146E+01  3.706736011E+01 -1.038757531E+02  1.116637038E+02  4.750000000E+00  0.00000E+00  9.000E+00
      21     1     1     2   503   512 -1.891826880E+01  5.509171763E+00 -1.250212837E+02  1.265645023E+02  1.907348633E-06  0.00000E+00  9.000E+00
#rwgt            1           9   7.0515879719870787E-005           3      830455           0
</event>
<event>
      6   9999  3.45752E-01  5.99825E+00 -1.00000E+00  2.14076E-01
      21    -1     0     0   501   502  0.000000000E+00  0.000000000E+00  2.071273701E+03  2.071273701E+03  0.000000000E+00  0.00000E+00  9.000E+00
      21    -1     0     0   502   511  0.000000000E+00  0.000000000E+00 -1.775739673E+02  1.775739673E+02  0.000000000E+00  0.00000E+00  9.000E+00
      25     1     1     2     0     0  9.830278054E+00 -9.509841729E+00  1.028422784E+03  1.036081908E+03  1.250009049E+02  0.00000E+00  9.000E+00
       5     1     1     2   501     0  5.110830567E-01 -7.110354327E-01  6.599092334E+02  6.599269093E+02  4.750000000E+00  0.00000E+00  9.000E+00
      -5     1     1     2     0   503 -4.567325425E+00  1.184552607E+01  3.789302910E+02  3.791726585E+02  4.750000000E+00  0.00000E+00  9.000E+00
      21     1     1     2   503   511 -5.774035685E+00 -1.624648909E+00 -1.735625748E+02  1.736661923E+02  6.607249480E-06  0.00000E+00  9.000E+00
#rwgt            1           9   1.8622507579277958E-005           3      832925           0
</event>
<event>
      6   9999  3.45752E-01  4.89520E+00 -1.00000E+00  2.30992E-01
      21    -1     0     0   501   502  0.000000000E+00  0.000000000E+00  8.347305633E+00  8.347305633E+00  0.000000000E+00  0.00000E+00  9.000E+00
      21    -1     0     0   502   512  0.000000000E+00  0.000000000E+00 -8.779216990E+02  8.779216990E+02  0.000000000E+00  0.00000E+00  9.000E+00
      25     1     1     2     0     0 -9.211640314E+00  1.673922832E+01 -6.950650220E+02  7.064739412E+02  1.249999549E+02  0.00000E+00  9.000E+00
       5     1     1     2   501     0 -6.075135369E-01 -2.728304749E-02 -2.584725078E+00  5.441793895E+00  4.750000000E+00  0.00000E+00  9.000E+00
      -5     1     1     2     0   503  7.313712435E+00 -1.250650256E+01 -4.868882391E+01  5.102026136E+01  4.750000000E+00  0.00000E+00  9.000E+00
      21     1     1     2   503   512  2.505441416E+00 -4.205442713E+00 -1.232358224E+02  1.233330081E+02  1.907348633E-06  0.00000E+00  9.000E+00
#rwgt            1           9   1.8090897969264851E-004           3      836718           0
</event>
<event>
      6   9999  3.45752E-01  7.72209E+00 -1.00000E+00  1.99851E-01
      21    -1     0     0   501   511  0.000000000E+00  0.000000000E+00  2.946762864E+02  2.946762864E+02  0.000000000E+00  0.00000E+00  9.000E+00
      21    -1     0     0   502   503  0.000000000E+00  0.000000000E+00 -2.176216430E+01  2.176216430E+01  0.000000000E+00  0.00000E+00  9.000E+00
      25     1     1     2     0     0 -6.110166147E+00 -2.861641215E+00  1.690751822E+02  2.103726014E+02  1.249987643E+02  0.00000E+00  9.000E+00
       5     1     1     2   501     0 -1.177389465E+00 -1.919578733E-01  5.428472692E+01  5.450520315E+01  4.750000000E+00  0.00000E+00  9.000E+00
      -5     1     1     2     0   503  9.956752067E-02  2.316446817E-01  8.100610432E+00  9.393932208E+00  4.750000000E+00  0.00000E+00  9.000E+00
      21     1     1     2   502   511  7.187988091E+00  2.821954407E+00  4.145360262E+01  4.216671400E+01  4.768371582E-07  0.00000E+00  9.000E+00
#rwgt            1           9  0.90698939047722227                3      840256           0
</event>
<event>
      6   9999  3.45752E-01  1.00896E+01 -1.00000E+00  1.86787E-01
      21    -1     0     0   501   502  0.000000000E+00  0.000000000E+00  3.655061704E+01  3.655061704E+01  0.000000000E+00  0.00000E+00  9.000E+00
      21    -1     0     0   502   512  0.000000000E+00  0.000000000E+00 -1.237149309E+03  1.237149309E+03  0.000000000E+00  0.00000E+00  9.000E+00
      25     1     1     2     0     0  5.005027625E+01 -3.167874365E+01 -3.005079089E+02  3.308132005E+02  1.249951895E+02  0.00000E+00  9.000E+00
       5     1     1     2   501     0  2.298342190E-01 -8.002556602E+00  1.871992283E+01  2.090673927E+01  4.750000000E+00  0.00000E+00  9.000E+00
      -5     1     1     2     0   503 -4.401385663E+01  3.177348239E+01 -8.854930954E+02  8.871681679E+02  4.750000000E+00  0.00000E+00  9.000E+00
      21     1     1     2   503   512 -6.266253846E+00  7.907817860E+00 -3.331761079E+01  3.481181853E+01  4.768371582E-07  0.00000E+00  9.000E+00
#rwgt            1           9   1.3128879552655036E-003           3      842756           0
</event>
<event>
      6   9999  3.45752E-01  8.05844E+00 -1.00000E+00  1.97642E-01
      21    -1     0     0   501   502  0.000000000E+00  0.000000000E+00  1.962122519E+01  1.962122519E+01  0.000000000E+00  0.00000E+00  9.000E+00
      21    -1     0     0   502   511  0.000000000E+00  0.000000000E+00 -5.561237776E+02  5.561237776E+02  0.000000000E+00  0.00000E+00  9.000E+00
      25     1     1     2     0     0  1.352658176E+01 -6.513569133E+00 -2.098492107E+02  2.447199526E+02  1.250030758E+02  0.00000E+00  9.000E+00
       5     1     1     2   501     0 -7.810536295E-02 -3.722964090E-01 -5.143050392E+00  7.011288926E+00  4.750000000E+00  0.00000E+00  9.000E+00
      -5     1     1     2     0   503 -1.530825900E+01 -9.550348010E-01 -5.291261355E+01  5.529522636E+01  4.750000000E+00  0.00000E+00  9.000E+00
      21     1     1     2   503   511  1.859782605E+00  7.840900343E+00 -2.685976777E+02  2.687185349E+02  0.000000000E+00  0.00000E+00  9.000E+00
#rwgt            1           9   3.4975751317211355E-003           3      846161           0
</event>
<event>
      6   9999  3.45752E-01  1.36437E+01 -1.00000E+00  1.74017E-01
      21    -1     0     0   512   502  0.000000000E+00  0.000000000E+00  9.155231539E+01  9.155231539E+01  0.000000000E+00  0.00000E+00  9.000E+00
      21    -1     0     0   502   503  0.000000000E+00  0.000000000E+00 -6.960115203E+02  6.960115203E+02  0.000000000E+00  0.00000E+00  9.000E+00
      25     1     1     2     0     0 -2.007291538E+01 -1.064046214E+01 -6.517716553E+02  6.640404258E+02  1.250090200E+02  0.00000E+00  9.000E+00
       5     1     1     2   501     0  5.699586745E+00 -2.084069438E+00  6.063666059E+01  6.112442836E+01  4.750000000E+00  0.00000E+00  9.000E+00
      -5     1     1     2     0   503  5.616853078E+00  2.261553919E+00 -3.552054432E+01  3.634467270E+01  4.750000000E+00  0.00000E+00  9.000E+00
      21     1     1     2   512   501  8.756475554E+00  1.046297766E+01  2.219633407E+01  2.605430889E+01  1.039242493E-06  0.00000E+00  9.000E+00
#rwgt            1           9   4.1663769359094646E-002           3      848522           0
</event>
<event>
      6   9999  3.45752E-01  4.37354E+01 -1.00000E+00  1.37974E-01
      21    -1     0     0   501   502  0.000000000E+00  0.000000000E+00  1.575556975E+01  1.575556975E+01  0.000000000E+00  0.00000E+00  9.000E+00
      21    -1     0     0   511   503  0.000000000E+00  0.000000000E+00 -1.055118378E+03  1.055118378E+03  0.000000000E+00  0.00000E+00  9.000E+00
      25     1     1     2     0     0 -4.223148476E+01 -1.826557822E+01 -8.266998916E+02  8.373620408E+02  1.250013875E+02  0.00000E+00  9.000E+00
       5     1     1     2   501     0  1.202931182E+01 -1.432586147E+01 -4.682161343E+00  1.986000465E+01  4.750000000E+00  0.00000E+00  9.000E+00
      -5     1     1     2     0   503 -5.148394131E-01  1.458589275E+00 -2.729310725E+01  2.774650871E+01  4.750000000E+00  0.00000E+00  9.000E+00
      21     1     1     2   511   502  3.071701235E+01  3.113285041E+01 -1.806876478E+02  1.859053933E+02  0.000000000E+00  0.00000E+00  9.000E+00
#rwgt            1           9   2.1387802616785806E-003           3      851578           0
</event>
<event>
      6   9999  3.45752E-01  1.94999E+01 -1.00000E+00  1.61054E-01
      21    -1     0     0   501   512  0.000000000E+00  0.000000000E+00  4.066273440E+01  4.066273440E+01  0.000000000E+00  0.00000E+00  9.000E+00
      21    -1     0     0   502   503  0.000000000E+00  0.000000000E+00 -6.383391619E+02  6.383391619E+02  0.000000000E+00  0.00000E+00  9.000E+00
      25     1     1     2     0     0 -2.237409737E+01 -1.578720673E+01 -5.810097775E+02  5.949346729E+02  1.250002696E+02  0.00000E+00  9.000E+00
       5     1     1     2   501     0  1.268601777E+00 -4.748380339E+00  2.809710517E+01  2.891654000E+01  4.750000000E+00  0.00000E+00  9.000E+00
      -5     1     1     2     0   503  9.200492669E+00  5.091538953E+00 -2.420790914E+01  2.681712511E+01  4.750000000E+00  0.00000E+00  9.000E+00
      21     1     1     2   502   512  1.190500293E+01  1.544404811E+01 -2.055584608E+01  2.833355828E+01  4.129530925E-07  0.00000E+00  9.000E+00
#rwgt            1           9  0.28506164857413163                3      852394           0
</event>
<event>
      6   9999 -3.45752E-01  9.01076E+00 -1.00000E+00  1.92088E-01
      21    -1     0     0   511   503  0.000000000E+00  0.000000000E+00  7.638848688E+01  7.638848688E+01  0.000000000E+00  0.00000E+00  9.000E+00
      21    -1     0     0   501   502  0.000000000E+00  0.000000000E+00 -2.106182330E+02  2.106182330E+02  0.000000000E+00  0.00000E+00  9.000E+00
      25     1     1     2     0     0 -4.159558395E+01  5.390577365E+01 -1.543002457E+02  2.099271227E+02  1.249992240E+02  0.00000E+00  9.000E+00
       5     1     1     2   501     0 -8.055090547E-01 -3.732286768E+00  1.055758149E+00  6.185138206E+00  4.750000000E+00  0.00000E+00  9.000E+00
      -5     1     1     2     0   503  4.176310195E+01 -4.118533762E+01  1.914482524E+01  6.188275650E+01  4.750000000E+00  0.00000E+00  9.000E+00
      21     1     1     2   511   502  6.379910614E-01 -8.988149266E+00 -1.300838385E-01  9.011702482E+00  1.600358004E-07  0.00000E+00  9.000E+00
#rwgt            1           9 -0.41504180341568270                3      855223           0
</event>
<event>
      6   9999  3.45752E-01  7.35913E+00 -1.00000E+00  2.02408E-01
      21    -1     0     0   501   512  0.000000000E+00  0.000000000E+00  2.852296913E+01  2.852296913E+01  0.000000000E+00  0.00000E+00  9.000E+00
      21    -1     0     0   502   503  0.000000000E+00  0.000000000E+00 -7.562335149E+02  7.562335149E+02  0.000000000E+00  0.00000E+00  9.000E+00
      25     1     1     2     0     0  1.054757561E+01  2.733241902E+01 -5.461530635E+02  5.610401338E+02  1.249982017E+02  0.00000E+00  9.000E+00
       5     1     1     2   501     0 -2.896267981E+00  6.893387073E-01  1.894270323E+01  1.975479845E+01  4.750000000E+00  0.00000E+00  9.000E+00
      -5     1     1     2     0   503 -1.196832140E+00 -2.448671202E+01 -1.863150956E+02  1.879811396E+02  4.750000000E+00  0.00000E+00  9.000E+00
      21     1     1     2   502   512 -6.454475492E+00 -3.535045709E+00 -1.418508983E+01  1.598041225E+01  1.685873940E-07  0.00000E+00  9.000E+00
#rwgt            1           9   7.7599247525399694E-004           3      858786           0
</event>
<event>
      6   9999 -3.45752E-01  1.04149E+01 -1.00000E+00  1.85353E-01
      21    -1     0     0   511   503  0.000000000E+00  0.000000000E+00  1.347971314E+02  1.347971314E+02  0.000000000E+00  0.00000E+00  9.000E+00
      21    -1     0     0   501   502  0.000000000E+00  0.000000000E+00 -8.980677084E+02  8.980677084E+02  0.000000000E+00  0.00000E+00  9.000E+00
      25     1     1     2     0     0  2.510181638E+01 -5.521303596E+01 -3.680645539E+02  3.934146039E+02  1.249998168E+02  0.00000E+00  9.000E+00
       5     1     1     2   501     0 -3.108392355E-02 -1.811075425E+00 -8.074415217E+01  8.090402691E+01  4.750000000E+00  0.00000E+00  9.000E+00
      -5     1     1     2     0   503 -3.370383598E+01  5.119835543E+01 -4.341119013E+02  4.384437541E+02  4.750000000E+00  0.00000E+00  9.000E+00
      21     1     1     2   511   502  8.633103522E+00  5.825755955E+00  1.196500304E+02  1.201024549E+02  2.336015456E-06  0.00000E+00  9.000E+00
#rwgt            1           9  -5.5952931536820717E-003           3      862615           0
</event>
<event>
      6   9999  3.45752E-01  1.56523E+01 -1.00000E+00  1.68785E-01
      21    -1     0     0   501   502  0.000000000E+00  0.000000000E+00  7.103159661E+02  7.103159661E+02  0.000000000E+00  0.00000E+00  9.000E+00
      21    -1     0     0   502   512  0.000000000E+00  0.000000000E+00 -2.369194884E+02  2.369194884E+02  0.000000000E+00  0.00000E+00  9.000E+00
      25     1     1     2     0     0  8.173231472E+01 -1.031967969E+02  4.221839999E+01  1.863799207E+02  1.250013256E+02  0.00000E+00  9.000E+00
       5     1     1     2   501     0 -1.152672536E+00 -1.290745637E+01  4.591287047E+02  4.593361091E+02  4.750000000E+00  0.00000E+00  9.000E+00
      -5     1     1     2     0   503 -9.224373834E+01  1.056666916E+02  1.001824469E+02  1.724338776E+02  4.750000000E+00  0.00000E+00  9.000E+00
      21     1     1     2   503   512  1.166409616E+01  1.043756163E+01 -1.281330739E+02  1.290855471E+02  0.000000000E+00  0.00000E+00  9.000E+00
#rwgt            1           9  0.50458761422677112                3      865027           0
</event>
<event>
      6   9999  3.45752E-01  1.14454E+01 -1.00000E+00  1.81222E-01
      21    -1     0     0   511   502  0.000000000E+00  0.000000000E+00  7.953105080E+00  7.953105080E+00  0.000000000E+00  0.00000E+00  9.000E+00
      21    -1     0     0   502   503  0.000000000E+00  0.000000000E+00 -7.466755021E+02  7.466755021E+02  0.000000000E+00  0.00000E+00  9.000E+00
      25     1     1     2     0     0  1.131781168E+01 -8.338639682E+00 -6.285521391E+02  6.410152610E+02  1.250005900E+02  0.00000E+00  9.000E+00
       5     1     1     2   501     0  6.617393029E-01 -4.306639072E-01 -6.820634011E+00  8.349066931E+00  4.750000000E+00  0.00000E+00  9.000E+00
      -5     1     1     2     0   503 -1.983101163E+00  3.195425192E+00 -6.393741837E+01  6.422382268E+01  4.750000000E+00  0.00000E+00  9.000E+00
      21     1     1     2   511   501 -9.996449817E+00  5.573878397E+00 -3.941220548E+01  4.104045651E+01  4.768371582E-07  0.00000E+00  9.000E+00
#rwgt            1           9   2.4729826874340119E-004           3      868056           0
</event>
<event>
      6   9999 -3.45752E-01  9.34003E+00 -1.00000E+00  1.90372E-01
      21    -1     0     0   501   502  0.000000000E+00  0.000000000E+00  3.808205045E+01  3.808205045E+01  0.000000000E+00  0.00000E+00  9.000E+00
       2    -1     0     0   502     0  0.000000000E+00  0.000000000E+00 -2.032006493E+03  2.032006493E+03  0.000000000E+00  0.00000E+00  9.000E+00
      25     1     1     2     0     0  1.907035328E+01  5.779296638E+00 -7.523645827E+02  7.629387169E+02  1.250037668E+02  0.00000E+00  9.000E+00
       5     1     1     2   501     0 -1.815164348E+00 -7.777744178E+00  3.198802825E+01  3.331042746E+01  4.750000000E+00  0.00000E+00  9.000E+00
      -5     1     1     2     0   503 -1.260495080E+01 -6.101640289E+00 -4.594084714E+02  4.596464085E+02  4.750000000E+00  0.00000E+00  9.000E+00
       2     1     1     2   503     0 -4.650238133E+00  8.100087829E+00 -8.141394165E+02  8.141929904E+02  1.525878906E-05  0.00000E+00  9.000E+00
#rwgt            1           9  -3.5887901529706001E-002           3      870025           0
</event>
<event>
      6   9999 -3.45752E-01  2.47493E+01 -1.00000E+00  1.53454E-01
      21    -1     0     0   501   502  0.000000000E+00  0.000000000E+00  8.600661200E+00  8.600661200E+00  0.000000000E+00  0.00000E+00  9.000E+00
       2    -1     0     0   502     0  0.000000000E+00  0.000000000E+00 -1.487761173E+03  1.487761173E+03  0.000000000E+00  0.00000E+00  9.000E+00
      25     1     1     2     0     0 -1.972109014E+01 -1.143206205E+01 -5.555575242E+02  5.698812928E+02  1.249036100E+02  0.00000E+00  9.000E+00
       5     1     1     2   501     0  6.582635019E-02 -1.466875564E+00 -6.550632640E+00  8.223706282E+00  4.750000000E+00  0.00000E+00  9.000E+00
      -5     1     1     2     0   503  1.447308903E+01 -1.130169378E+01 -2.383971383E+02  2.391504895E+02  4.750000000E+00  0.00000E+00  9.000E+00
       2     1     1     2   503     0  5.182174759E+00  2.420063139E+01 -6.786552171E+02  6.791063460E+02  1.078959322E-05  0.00000E+00  9.000E+00
#rwgt            1           9  -6.2860809184326863E-002           3      873941           0
</event>
<event>
      6   9999 -3.45752E-01  1.58066E+01 -1.00000E+00  1.68423E-01
      21    -1     0     0   501   502  0.000000000E+00  0.000000000E+00  7.529002814E+01  7.529002814E+01  0.000000000E+00  0.00000E+00  9.000E+00
       2    -1     0     0   502     0  0.000000000E+00  0.000000000E+00 -1.699683077E+03  1.699683077E+03  0.000000000E+00  0.00000E+00  9.000E+00
      25     1     1     2     0     0  5.290374681E+01 -7.167790188E+01 -8.320295315E+00  1.536835702E+02  1.249515282E+02  0.00000E+00  9.000E+00
       5     1     1     2   501     0  1.215218609E-01 -5.183833952E-01 -1.481933271E+01  1.557108252E+01  4.750000000E+00  0.00000E+00  9.000E+00
      -5     1     1     2     0   503 -5.429058139E+01  8.795215674E+01 -1.341236890E+03  1.345221917E+03  4.750000000E+00  0.00000E+00  9.000E+00
       2     1     1     2   503     0  1.265312715E+00 -1.575587147E+01 -2.600165306E+02  2.604965349E+02  3.814697266E-06  0.00000E+00  9.000E+00
#rwgt            1           9  -3.7514547237499966E-002           3      874859           0
</event>
<event>
      6   9999  3.45752E-01  8.04075E+00 -1.00000E+00  1.97754E-01
      21    -1     0     0   501   511  0.000000000E+00  0.000000000E+00  2.406511589E+02  2.406511589E+02  0.000000000E+00  0.00000E+00  9.000E+00
      21    -1     0     0   502   503  0.000000000E+00  0.000000000E+00 -7.953388252E+02  7.953388252E+02  0.000000000E+00  0.00000E+00  9.000E+00
      25     1     1     2     0     0  7.886315973E+00  7.028047630E+00 -6.916646822E+02  7.029478507E+02  1.249962430E+02  0.00000E+00  9.000E+00
       5     1     1     2   501     0  2.160944724E+00 -4.834153713E+00  5.848981544E+00  9.209332729E+00  4.750000000E+00  0.00000E+00  9.000E+00
      -5     1     1     2     0   503 -6.363960111E+00 -9.341408506E+00 -9.589088057E+01  9.667153344E+01  4.750000000E+00  0.00000E+00  9.000E+00
      21     1     1     2   502   511 -3.683300586E+00  7.147514589E+00  2.270189148E+02  2.271612673E+02  6.031565972E-06  0.00000E+00  9.000E+00
#rwgt            1           9   6.7365555021721465E-002           3      878230           0
</event>
<event>
      6   9999  3.45752E-01  7.14351E+00 -1.00000E+00  2.04022E-01
      21    -1     0     0   501   502  0.000000000E+00  0.000000000E+00  1.132105807E+03  1.132105807E+03  0.000000000E+00  0.00000E+00  9.000E+00
      21    -1     0     0   502   512  0.000000000E+00  0.000000000E+00 -8.517920152E+00  8.517920152E+00  0.000000000E+00  0.00000E+00  9.000E+00
      25     1     1     2     0     0 -2.217451708E+01  2.045721421E+01  7.319582377E+02  7.431711795E+02  1.250213318E+02  0.00000E+00  9.000E+00
       5     1     1     2   501     0  6.255418935E-01  1.994808228E+00  2.922640646E+02  2.923101375E+02  4.750000000E+00  0.00000E+00  9.000E+00
      -5     1     1     2     0   503  2.197567880E+01 -1.532126358E+01  7.718018465E+01  8.183529176E+01  4.750000000E+00  0.00000E+00  9.000E+00
      21     1     1     2   503   512 -4.267036133E-01 -7.130758863E+00  2.218539966E+01  2.330711814E+01  5.331201500E-07  0.00000E+00  9.000E+00
#rwgt            1           9   245.79946543281144                3      881356           0
</event>
<event>
      6   9999  3.45752E-01  6.54184E+01 -1.00000E+00  1.28825E-01
      21    -1     0     0   511   502  0.000000000E+00  0.000000000E+00  1.193753957E+02  1.193753957E+02  0.000000000E+00  0.00000E+00  9.000E+00
      21    -1     0     0   502   503  0.000000000E+00  0.000000000E+00 -2.933584306E+02  2.933584306E+02  0.000000000E+00  0.00000E+00  9.000E+00
      25     1     1     2     0     0 -8.489400109E+01  7.611580708E+01 -2.093684387E+02  2.691850310E+02  1.249993211E+02  0.00000E+00  9.000E+00
       5     1     1     2   501     0  4.298755892E+01 -2.125437747E+01  4.738322874E+01  6.758262831E+01  4.750000000E+00  0.00000E+00  9.000E+00
      -5     1     1     2     0   503 -2.802191727E+00 -7.104685393E+00 -4.682883314E+00  1.014005568E+01  4.750000000E+00  0.00000E+00  9.000E+00
      21     1     1     2   511   501  4.470863389E+01 -4.775674422E+01 -7.314941667E+00  6.582611134E+01  1.418039471E-06  0.00000E+00  9.000E+00
#rwgt            1           9   1.8575642957901165E-003           3      884471           0
</event>
<event>
      6   9999 -3.45752E-01  1.40736E+01 -1.00000E+00  1.72806E-01
      21    -1     0     0   501   512  0.000000000E+00  0.000000000E+00  1.577200460E+02  1.577200460E+02  0.000000000E+00  0.00000E+00  9.000E+00
      21    -1     0     0   502   503  0.000000000E+00  0.000000000E+00 -2.748773705E+03  2.748773705E+03  0.000000000E+00  0.00000E+00  9.000E+00
      25     1     1     2     0     0  1.232955740E+01 -1.222709126E+01 -2.388137989E+03  2.391470410E+03  1.250045958E+02  0.00000E+00  9.000E+00
       5     1     1     2   501     0  6.701888636E-01  2.107387145E-01 -2.705502604E+01  2.747781829E+01  4.750000000E+00  0.00000E+00  9.000E+00
      -5     1     1     2     0   503  8.965584820E-01  9.789327301E+00 -3.312952404E+02  3.314750874E+02  4.750000000E+00  0.00000E+00  9.000E+00
      21     1     1     2   502   512 -1.389630474E+01  2.227025247E+00  1.554345964E+02  1.560704350E+02  4.672030912E-06  0.00000E+00  9.000E+00
#rwgt            1           9  -5.5623415598613086E-005           3      885633           0
</event>
<event>
      6   9999  3.45752E-01  2.25753E+01 -1.00000E+00  1.56296E-01
      21    -1     0     0   511   502  0.000000000E+00  0.000000000E+00  1.483043886E+03  1.483043886E+03  0.000000000E+00  0.00000E+00  9.000E+00
      21    -1     0     0   502   503  0.000000000E+00  0.000000000E+00 -3.193344173E+01  3.193344173E+01  0.000000000E+00  0.00000E+00  9.000E+00
      25     1     1     2     0     0  1.087865002E+02 -4.379922817E+01  8.377101789E+02  8.550650394E+02  1.250000115E+02  0.00000E+00  9.000E+00
       5     1     1     2   501     0 -2.070745826E+00  1.071674601E+00  3.334869855E+02  3.335289620E+02  4.750000000E+00  0.00000E+00  9.000E+00
      -5     1     1     2     0   503 -1.255017377E+02  3.020832132E+01  1.664325164E+02  2.106788405E+02  4.750000000E+00  0.00000E+00  9.000E+00
      21     1     1     2   511   501  1.878598332E+01  1.251923225E+01  1.134807637E+02  1.157044860E+02  0.000000000E+00  0.00000E+00  9.000E+00
#rwgt            1           9   2.3224538461682852E-005           3      887732           0
</event>
<event>
      6   9999  3.45752E-01  1.69705E+01 -1.00000E+00  1.65853E-01
      21    -1     0     0   512   502  0.000000000E+00  0.000000000E+00  2.770448695E+01  2.770448695E+01  0.000000000E+00  0.00000E+00  9.000E+00
      21    -1     0     0   502   503  0.000000000E+00  0.000000000E+00 -9.774538800E+02  9.774538800E+02  0.000000000E+00  0.00000E+00  9.000E+00
      25     1     1     2     0     0 -1.223736295E+01 -1.983577285E+01 -9.205331315E+02  9.292736464E+02  1.250002110E+02  0.00000E+00  9.000E+00
       5     1     1     2   501     0  2.380659524E+00 -3.147820186E+00  1.317048743E+01  1.454649617E+01  4.750000000E+00  0.00000E+00  9.000E+00
      -5     1     1     2     0   503  6.002532362E+00  6.456557012E+00 -4.320273597E+01  4.434812756E+01  4.750000000E+00  0.00000E+00  9.000E+00
      21     1     1     2   512   501  3.854171067E+00  1.652703602E+01  8.159870097E-01  1.699009679E+01  2.864358244E-07  0.00000E+00  9.000E+00
#rwgt            1           9   2.3590751384253645E-003           3      890043           0
</event>
<event>
      6   9999 -3.45752E-01  8.84700E+00 -1.00000E+00  1.92978E-01
      21    -1     0     0   501   511  0.000000000E+00  0.000000000E+00  8.257826471E+00  8.257826471E+00  0.000000000E+00  0.00000E+00  9.000E+00
      21    -1     0     0   502   503  0.000000000E+00  0.000000000E+00 -2.965067495E+03  2.965067495E+03  0.000000000E+00  0.00000E+00  9.000E+00
      25     1     1     2     0     0  1.504888434E+01  5.744085174E+00 -2.851442229E+03  2.854226261E+03  1.250012092E+02  0.00000E+00  9.000E+00
       5     1     1     2   501     0 -2.248552330E+00 -8.342766634E-01  4.135886186E+00  6.739440605E+00  4.750000000E+00  0.00000E+00  9.000E+00
      -5     1     1     2     0   503 -4.022227279E+00 -3.807870358E+00 -9.561387931E+01  9.589189020E+01  4.750000000E+00  0.00000E+00  9.000E+00
      21     1     1     2   502   511 -8.778104727E+00 -1.101938152E+00 -1.388944703E+01  1.646772993E+01  6.529361695E-07  0.00000E+00  9.000E+00
#rwgt            1           9  -1.0909722848011932E-003           3      891965           0
</event>
<event>
      6   9999  3.45752E-01  2.93221E+01 -1.00000E+00  1.48483E-01
      21    -1     0     0   501   502  0.000000000E+00  0.000000000E+00  1.441344431E+02  1.441344431E+02  0.000000000E+00  0.00000E+00  9.000E+00
      21    -1     0     0   512   503  0.000000000E+00  0.000000000E+00 -1.218420988E+03  1.218420988E+03  0.000000000E+00  0.00000E+00  9.000E+00
      25     1     1     2     0     0 -1.687663089E+02  9.638562249E+01 -5.790718973E+02  6.234757989E+02  1.250022173E+02  0.00000E+00  9.000E+00
       5     1     1     2   501     0 -7.357550154E+00 -4.440989861E+00  1.027769766E+02  1.032449774E+02  4.750000000E+00  0.00000E+00  9.000E+00
      -5     1     1     2     0   503  1.631314128E+02 -6.565812878E+01 -4.185775130E+02  4.540402456E+02  4.750000000E+00  0.00000E+00  9.000E+00
      21     1     1     2   512   502  1.299244623E+01 -2.628650385E+01 -1.794141112E+02  1.817944093E+02  2.697398305E-06  0.00000E+00  9.000E+00
#rwgt            1           9   7.0777640597337321E-004           3      895293           0
</event>
<event>
      6   9999  3.45752E-01  5.07918E+00 -1.00000E+00  2.24660E-01
      21    -1     0     0   501   511  0.000000000E+00  0.000000000E+00  2.415246784E+01  2.415246784E+01  0.000000000E+00  0.00000E+00  9.000E+00
      21    -1     0     0   502   503  0.000000000E+00  0.000000000E+00 -8.025829718E+02  8.025829718E+02  0.000000000E+00  0.00000E+00  9.000E+00
      25     1     1     2     0     0 -7.021901444E+00  7.515386321E+00 -7.785819867E+02  7.886191407E+02  1.249978039E+02  0.00000E+00  9.000E+00
       5     1     1     2   501     0  1.227344523E+00  1.331266385E+00  3.036475035E+00  5.921260457E+00  4.750000000E+00  0.00000E+00  9.000E+00
      -5     1     1     2     0   503  2.333796776E+00 -5.128959605E+00 -1.627941190E+01  1.786993525E+01  4.750000000E+00  0.00000E+00  9.000E+00
      21     1     1     2   502   511  3.460760145E+00 -3.717693101E+00  1.339441965E+01  1.432510316E+01  6.078504936E-07  0.00000E+00  9.000E+00
#rwgt            1           9   5.9291134379151429E-006           3      897481           0
</event>
<event>
      6   9999 -3.45752E-01  7.96783E+00 -1.00000E+00  1.98223E-01
      21    -1     0     0   512   502  0.000000000E+00  0.000000000E+00  2.423919860E+01  2.423919860E+01  0.000000000E+00  0.00000E+00  9.000E+00
      21    -1     0     0   502   503  0.000000000E+00  0.000000000E+00 -1.004228271E+03  1.004228271E+03  0.000000000E+00  0.00000E+00  9.000E+00
      25     1     1     2     0     0  7.607073354E-01  4.309274921E+01 -3.093514268E+02  3.364240166E+02  1.250009997E+02  0.00000E+00  9.000E+00
       5     1     1     2   501     0  8.432674081E-01 -2.572020295E+00  5.429330121E+00  7.704966832E+00  4.750000000E+00  0.00000E+00  9.000E+00
      -5     1     1     2     0   503  6.194674126E+00 -4.215396094E+01 -6.749297289E+02  6.762899023E+02  4.750000000E+00  0.00000E+00  9.000E+00
      21     1     1     2   512   501 -7.798648870E+00  1.633232024E+00 -1.137246616E+00  8.048583783E+00  2.407356265E-07  0.00000E+00  9.000E+00
#rwgt            1           9  -2.3456038328540689E-004           3      901385           0
</event>
<event>
      6   9999 -3.45752E-01  2.74894E+00 -1.00000E+00  2.87230E-01
      21    -1     0     0   511   502  0.000000000E+00  0.000000000E+00  1.946670755E+01  1.946670755E+01  0.000000000E+00  0.00000E+00  9.000E+00
      21    -1     0     0   502   503  0.000000000E+00  0.000000000E+00 -8.831949600E+02  8.831949600E+02  0.000000000E+00  0.00000E+00  9.000E+00
      25     1     1     2     0     0  3.466213891E+01  8.938993088E-02 -6.456544245E+02  6.585559447E+02  1.249992983E+02  0.00000E+00  9.000E+00
       5     1     1     2   501     0 -4.274031777E-01  2.467866005E+00  5.024234002E+00  7.353806049E+00  4.750000000E+00  0.00000E+00  9.000E+00
      -5     1     1     2     0   503 -3.407483368E+01  1.870317987E-01 -2.282949054E+02  2.308728126E+02  4.750000000E+00  0.00000E+00  9.000E+00
      21     1     1     2   511   501 -1.599020532E-01 -2.744287735E+00  5.196843450E+00  5.879104157E+00  3.318646170E-07  0.00000E+00  9.000E+00
#rwgt            1           9  -9.3843750683517005E-005           3      904958           0
</event>
<event>
      6   9999  3.45752E-01  3.70112E+01 -1.00000E+00  1.42170E-01
      21    -1     0     0   501   502  0.000000000E+00  0.000000000E+00  4.460132797E+02  4.460132797E+02  0.000000000E+00  0.00000E+00  9.000E+00
      21    -1     0     0   512   503  0.000000000E+00  0.000000000E+00 -1.225393432E+02  1.225393432E+02  0.000000000E+00  0.00000E+00  9.000E+00
      25     1     1     2     0     0 -7.200961380E+01  1.391552468E+01  5.157253059E+01  1.538305130E+02  1.250002980E+02  0.00000E+00  9.000E+00
       5     1     1     2   501     0 -5.437943799E+00 -7.038924375E+00  2.912988434E+02  2.914733202E+02  4.750000000E+00  0.00000E+00  9.000E+00
      -5     1     1     2     0   503  6.485876484E+01 -4.168108104E+01  7.338166526E+00  7.759112759E+01  4.750000000E+00  0.00000E+00  9.000E+00
      21     1     1     2   512   502  1.258879276E+01  3.480448073E+01 -2.673560405E+01  4.565766208E+01  3.371747881E-07  0.00000E+00  9.000E+00
#rwgt            1           9   2.4394729266229036                3      912318           0
</event>
<event>
      6   9999  3.45752E-01  1.83687E+01 -1.00000E+00  1.63083E-01
      21    -1     0     0   501   502  0.000000000E+00  0.000000000E+00  4.135897217E+01  4.135897217E+01  0.000000000E+00  0.00000E+00  9.000E+00
      21    -1     0     0   502   511  0.000000000E+00  0.000000000E+00 -1.285653640E+03  1.285653640E+03  0.000000000E+00  0.00000E+00  9.000E+00
      25     1     1     2     0     0  1.345924272E+01  1.609846314E+01 -1.160381384E+03  1.167283088E+03  1.249981622E+02  0.00000E+00  9.000E+00
       5     1     1     2   501     0 -5.016461509E-01 -4.042562755E+00  3.582993398E+01  3.637225084E+01  4.750000000E+00  0.00000E+00  9.000E+00
      -5     1     1     2     0   503  3.597605728E+00 -4.097523542E+00 -6.925242288E+01  6.962896696E+01  4.750000000E+00  0.00000E+00  9.000E+00
      21     1     1     2   503   511 -1.655520230E+01 -7.958376842E+00 -5.049079526E+01  5.372830624E+01  6.743495762E-07  0.00000E+00  9.000E+00
#rwgt            1           9   2.0911767424509059E-005           3      913987           0
</event>
<event>
      6   9999 -3.45752E-01  4.15786E+00 -1.00000E+00  2.44421E-01
      21    -1     0     0   512   502  0.000000000E+00  0.000000000E+00  3.354390135E+02  3.354390135E+02  0.000000000E+00  0.00000E+00  9.000E+00
      21    -1     0     0   502   503  0.000000000E+00  0.000000000E+00 -4.646317343E+02  4.646317343E+02  0.000000000E+00  0.00000E+00  9.000E+00
      25     1     1     2     0     0 -2.221857660E+01 -1.073244120E+01 -2.208663997E+02  2.549851977E+02  1.250065362E+02  0.00000E+00  9.000E+00
       5     1     1     2   501     0  1.430643762E+00 -1.856139795E+00  1.763095566E+01  1.840937517E+01  4.750000000E+00  0.00000E+00  9.000E+00
      -5     1     1     2     0   503  1.943416593E+01  1.651988135E+01 -2.255586543E+02  2.270459475E+02  4.750000000E+00  0.00000E+00  9.000E+00
      21     1     1     2   512   501  1.353766901E+00 -3.931300350E+00  2.996013774E+02  2.996302274E+02  0.000000000E+00  0.00000E+00  9.000E+00
#rwgt            1           9  -6.8841291149529873                3      916227           0
</event>
<event>
      6   9999  3.45752E-01  2.06195E+01 -1.00000E+00  1.59206E-01
      21    -1     0     0   501   502  0.000000000E+00  0.000000000E+00  6.271914027E+02  6.271914027E+02  0.000000000E+00  0.00000E+00  9.000E+00
      21    -1     0     0   502   511  0.000000000E+00  0.000000000E+00 -4.558612889E+02  4.558612889E+02  0.000000000E+00  0.00000E+00  9.000E+00
      25     1     1     2     0     0  6.545995492E+00  1.223260573E+01 -8.294722302E+01  1.506637214E+02  1.250073135E+02  0.00000E+00  9.000E+00
       5     1     1     2   501     0  8.779011060E-01 -3.682642519E+00  5.811015263E+02  5.811332712E+02  4.750000000E+00  0.00000E+00  9.000E+00
      -5     1     1     2     0   503 -3.674501456E+00  1.172575620E+01  8.252313592E+00  1.554536905E+01  4.750000000E+00  0.00000E+00  9.000E+00
      21     1     1     2   503   511 -3.749395142E+00 -2.027571941E+01 -3.350765031E+02  3.357103300E+02  3.814697266E-06  0.00000E+00  9.000E+00
#rwgt            1           9   3.6482288756143549E-005           3      921608           0
</event>
<event>
      6   9999  3.45752E-01  8.01623E+00 -1.00000E+00  1.97911E-01
      21    -1     0     0   501   502  0.000000000E+00  0.000000000E+00  1.019451693E+01  1.019451693E+01  0.000000000E+00  0.00000E+00  9.000E+00
      21    -1     0     0   512   503  0.000000000E+00  0.000000000E+00 -5.165132637E+02  5.165132637E+02  0.000000000E+00  0.00000E+00  9.000E+00
      25     1     1     2     0     0  6.111515336E+00 -5.169442947E+00 -4.459792353E+02  4.632338843E+02  1.249963179E+02  0.00000E+00  9.000E+00
       5     1     1     2   501     0  1.104133273E-01 -1.030382521E-01 -6.286205189E+00  7.880462148E+00  4.750000000E+00  0.00000E+00  9.000E+00
      -5     1     1     2     0   503 -2.432842823E-01 -6.753983697E-02 -2.531655602E+01  2.575954692E+01  4.750000000E+00  0.00000E+00  9.000E+00
      21     1     1     2   512   502 -5.978644382E+00  5.340021036E+00 -2.873675026E+01  2.983388726E+01  4.768371582E-07  0.00000E+00  9.000E+00
#rwgt            1           9   6.7666454551431623E-004           3      924018           0
</event>
<event>
      6   9999  3.45752E-01  1.15408E+01 -1.00000E+00  1.80868E-01
      21    -1     0     0   501   502  0.000000000E+00  0.000000000E+00  2.772598529E+01  2.772598529E+01  0.000000000E+00  0.00000E+00  9.000E+00
      21    -1     0     0   511   503  0.000000000E+00  0.000000000E+00 -1.472354586E+03  1.472354586E+03  0.000000000E+00  0.00000E+00  9.000E+00
      25     1     1     2     0     0  2.832110736E+01  1.648754195E+01 -1.093697381E+03  1.101305422E+03  1.250029894E+02  0.00000E+00  9.000E+00
       5     1     1     2   501     0 -2.324016452E-01 -8.792086205E-01  2.228606730E+01  2.280478709E+01  4.750000000E+00  0.00000E+00  9.000E+00
      -5     1     1     2     0   503 -1.914621207E+01 -2.290364397E+01 -1.899552406E+02  1.923452892E+02  4.750000000E+00  0.00000E+00  9.000E+00
      21     1     1     2   511   502 -8.942493653E+00  7.295310637E+00 -1.832620471E+02  1.836250736E+02  2.697398305E-06  0.00000E+00  9.000E+00
#rwgt            1           9   2.5241751768507949E-003           3      927264           0
</event>
<event>
      6   9999  3.45752E-01  1.58310E+01 -1.00000E+00  1.68367E-01
      21    -1     0     0   501   512  0.000000000E+00  0.000000000E+00  1.131174544E+02  1.131174544E+02  0.000000000E+00  0.00000E+00  9.000E+00
      21    -1     0     0   502   503  0.000000000E+00  0.000000000E+00 -1.309334849E+03  1.309334849E+03  0.000000000E+00  0.00000E+00  9.000E+00
      25     1     1     2     0     0 -9.892074896E+00  1.347955043E+02 -2.948345456E+02  3.475928692E+02  1.250028493E+02  0.00000E+00  9.000E+00
       5     1     1     2   501     0 -4.642036638E+00  1.063759061E+01  7.291105460E+01  7.398169518E+01  4.750000000E+00  0.00000E+00  9.000E+00
      -5     1     1     2     0   503  4.688483136E-01 -1.526987597E+02 -9.730806053E+02  9.850002833E+02  4.750000000E+00  0.00000E+00  9.000E+00
      21     1     1     2   502   512  1.406526322E+01  7.265664847E+00 -1.213298443E+00  1.587745597E+01  3.836868164E-07  0.00000E+00  9.000E+00
#rwgt            1           9   8.8393108161721079E-002           3      930129           0
</event>
<event>
      6   9999 -3.45752E-01  5.63236E+00 -1.00000E+00  2.17956E-01
      21    -1     0     0   501   502  0.000000000E+00  0.000000000E+00  2.803636677E+01  2.803636677E+01  0.000000000E+00  0.00000E+00  9.000E+00
      21    -1     0     0   511   503  0.000000000E+00  0.000000000E+00 -4.952278451E+02  4.952278451E+02  0.000000000E+00  0.00000E+00  9.000E+00
      25     1     1     2     0     0 -2.336651253E+01 -1.365675999E+00 -1.866629385E+02  2.258590626E+02  1.249856173E+02  0.00000E+00  9.000E+00
       5     1     1     2   501     0  2.671139324E-02 -1.104218137E+00  6.991967258E+00  8.524676964E+00  4.750000000E+00  0.00000E+00  9.000E+00
      -5     1     1     2     0   503  1.829279471E+01  4.970140031E+00 -2.628386157E+02  2.635640890E+02  4.750000000E+00  0.00000E+00  9.000E+00
      21     1     1     2   511   502  5.047006426E+00 -2.500245895E+00 -2.468189135E+01  2.531638331E+01  3.371747881E-07  0.00000E+00  9.000E+00
#rwgt            1           9  -25.790595928479124                3      933580           0
</event>
<event>
      6   9999  3.45752E-01  5.04107E+00 -1.00000E+00  2.25165E-01
      21    -1     0     0   501   502  0.000000000E+00  0.000000000E+00  4.696571498E+02  4.696571498E+02  0.000000000E+00  0.00000E+00  9.000E+00
      21    -1     0     0   502   512  0.000000000E+00  0.000000000E+00 -1.527423121E+01  1.527423121E+01  0.000000000E+00  0.00000E+00  9.000E+00
      25     1     1     2     0     0 -1.517390932E+01 -1.306665028E+01  2.803973617E+02  3.076498935E+02  1.249991664E+02  0.00000E+00  9.000E+00
       5     1     1     2   501     0 -7.549560045E-01  1.440784287E-03  7.749895349E+01  7.764805376E+01  4.750000000E+00  0.00000E+00  9.000E+00
      -5     1     1     2     0   503  1.351104876E+01  8.641802300E+00  8.931212735E+01  9.086499753E+01  4.750000000E+00  0.00000E+00  9.000E+00
      21     1     1     2   503   512  2.417816567E+00  4.423407193E+00  7.174476026E+00  8.768436257E+00  2.384185791E-07  0.00000E+00  9.000E+00
#rwgt            1           9  0.29165448722503912                3      937613           0
</event>
<event>
      6   9999  3.45752E-01  2.56424E+01 -1.00000E+00  1.52387E-01
      21    -1     0     0   511   502  0.000000000E+00  0.000000000E+00  3.305582962E+01  3.305582962E+01  0.000000000E+00  0.00000E+00  9.000E+00
      21    -1     0     0   502   503  0.000000000E+00  0.000000000E+00 -8.648339813E+02  8.648339813E+02  0.000000000E+00  0.00000E+00  9.000E+00
      25     1     1     2     0     0  9.375678500E-01 -5.333404552E+01 -4.362871261E+02  4.569652907E+02  1.250016843E+02  0.00000E+00  9.000E+00
       5     1     1     2   501     0 -3.411653833E-01 -1.255233981E+00 -1.447931329E+00  5.133323611E+00  4.750000000E+00  0.00000E+00  9.000E+00
      -5     1     1     2     0   503 -1.808094015E-01  2.895023291E+01 -4.063085089E+02  4.073663162E+02  4.750000000E+00  0.00000E+00  9.000E+00
      21     1     1     2   511   501 -4.155930652E-01  2.563904659E+01  1.226541465E+01  2.842488037E+01  9.386548846E-07  0.00000E+00  9.000E+00
#rwgt            1           9   1.2118627017907895E-007           3      941418           0
</event>
<event>
      6   9999  3.45752E-01  2.42444E+01 -1.00000E+00  1.54082E-01
      21    -1     0     0   501   502  0.000000000E+00  0.000000000E+00  1.188783834E+02  1.188783834E+02  0.000000000E+00  0.00000E+00  9.000E+00
      21    -1     0     0   502   512  0.000000000E+00  0.000000000E+00 -3.512236398E+02  3.512236398E+02  0.000000000E+00  0.00000E+00  9.000E+00
      25     1     1     2     0     0  4.645671576E+00  2.194147085E+01 -2.854659756E+02  3.124400452E+02  1.249997929E+02  0.00000E+00  9.000E+00
       5     1     1     2   501     0 -1.326679816E+00  2.662676297E+00  9.851103079E+01  9.867033805E+01  4.750000000E+00  0.00000E+00  9.000E+00
      -5     1     1     2     0   503  4.083726987E+00 -1.517556473E+00 -2.904594769E+01  2.975246848E+01  4.750000000E+00  0.00000E+00  9.000E+00
      21     1     1     2   503   512 -7.402718747E+00 -2.308659068E+01 -1.634436393E+01  2.923917144E+01  4.768371582E-07  0.00000E+00  9.000E+00
#rwgt            1           9   4.6681390721483028E-004           3      942481           0
</event>
<event>
      6   9999  3.45752E-01  2.62217E+01 -1.00000E+00  1.51722E-01
      21    -1     0     0   501   511  0.000000000E+00  0.000000000E+00  2.703440577E+01  2.703440577E+01  0.000000000E+00  0.00000E+00  9.000E+00
      21    -1     0     0   502   503  0.000000000E+00  0.000000000E+00 -1.046265164E+03  1.046265164E+03  0.000000000E+00  0.00000E+00  9.000E+00
      25     1     1     2     0     0 -4.617682954E+01 -9.297410825E+01 -5.347461209E+02  5.588851847E+02  1.249910056E+02  0.00000E+00  9.000E+00
       5     1     1     2   501     0  4.415821878E+01  1.208291189E+02 -4.362984348E+02  4.548939557E+02  4.750000000E+00  0.00000E+00  9.000E+00
      -5     1     1     2     0   503  1.204548375E+00 -1.645961986E+00 -2.147965498E+01  2.209294471E+01  4.750000000E+00  0.00000E+00  9.000E+00
      21     1     1     2   502   511  8.140623827E-01 -2.620904863E+01 -2.670654776E+01  3.742748483E+01  3.371747881E-07  0.00000E+00  9.000E+00
#rwgt            1           9   5.3098266790552347E-004           3      944991           0
</event>
<event>
      6   9999  3.45752E-01  5.83843E+00 -1.00000E+00  2.15723E-01
      21    -1     0     0   501   512  0.000000000E+00  0.000000000E+00  1.356938981E+01  1.356938981E+01  0.000000000E+00  0.00000E+00  9.000E+00
      21    -1     0     0   502   503  0.000000000E+00  0.000000000E+00 -8.824669262E+02  8.824669262E+02  0.000000000E+00  0.00000E+00  9.000E+00
      25     1     1     2     0     0 -1.990283319E+01  1.259462517E+01 -7.315912141E+02  7.425657819E+02  1.249939541E+02  0.00000E+00  9.000E+00
       5     1     1     2   501     0 -1.347231476E+00 -5.834233644E-01  4.960344323E+00  7.023028640E+00  4.750000000E+00  0.00000E+00  9.000E+00
      -5     1     1     2     0   503  2.223458769E+01 -1.776602586E+01 -1.211342641E+02  1.245234155E+02  4.750000000E+00  0.00000E+00  9.000E+00
      21     1     1     2   502   512 -9.845230305E-01  5.754824059E+00 -2.113240256E+01  2.192409003E+01  2.384185791E-07  0.00000E+00  9.000E+00
#rwgt            1           9   2.3977477850890545E-003           3      946607           0
</event>
<event>
      6   9999 -3.45752E-01  1.12160E+01 -1.00000E+00  1.82092E-01
      21    -1     0     0   501   502  0.000000000E+00  0.000000000E+00  5.522504204E+01  5.522504204E+01  0.000000000E+00  0.00000E+00  9.000E+00
      21    -1     0     0   511   503  0.000000000E+00  0.000000000E+00 -4.129417570E+02  4.129417570E+02  0.000000000E+00  0.00000E+00  9.000E+00
      25     1     1     2     0     0 -1.474020371E+01  1.082552138E+01 -3.709867742E+02  3.919064074E+02  1.249999201E+02  0.00000E+00  9.000E+00
       5     1     1     2   501     0 -4.988330863E+00 -2.295887758E+00  3.989836593E+01  4.055362683E+01  4.750000000E+00  0.00000E+00  9.000E+00
      -5     1     1     2     0   503  8.968237132E+00 -5.364967054E+00 -8.104495220E+00  1.405195686E+01  4.750000000E+00  0.00000E+00  9.000E+00
      21     1     1     2   511   502  1.076029744E+01 -3.164666572E+00 -1.852381152E+01  2.165480799E+01  3.371747881E-07  0.00000E+00  9.000E+00
#rwgt            1           9  -7.3818647404594350E-004           3      951047           0
</event>
<event>
      6   9999  3.45752E-01  2.29102E+01 -1.00000E+00  1.55834E-01
      21    -1     0     0   512   502  0.000000000E+00  0.000000000E+00  1.626691536E+01  1.626691536E+01  0.000000000E+00  0.00000E+00  9.000E+00
      21    -1     0     0   502   503  0.000000000E+00  0.000000000E+00 -2.183645253E+03  2.183645253E+03  0.000000000E+00  0.00000E+00  9.000E+00
      25     1     1     2     0     0  1.271147291E+01 -8.987247283E+01 -7.943429095E+02  8.092250642E+02  1.250036150E+02  0.00000E+00  9.000E+00
       5     1     1     2   501     0  4.920295148E+01  4.281027137E+00 -2.581230036E+02  2.628484452E+02  4.750000000E+00  0.00000E+00  9.000E+00
      -5     1     1     2     0   503 -7.607914688E+01  1.035981022E+02 -1.067068799E+03  1.074792532E+03  4.750000000E+00  0.00000E+00  9.000E+00
      21     1     1     2   512   501  1.416472249E+01 -1.800665649E+01 -4.784362525E+01  5.304612633E+01  1.348699152E-06  0.00000E+00  9.000E+00
#rwgt            1           9   3.6619597637491634E-004           3      954143           0
</event>
<event>
      6   9999 -3.45752E-01  5.66836E+00 -1.00000E+00  2.17556E-01
      21    -1     0     0   501   502  0.000000000E+00  0.000000000E+00  1.462121385E+01  1.462121385E+01  0.000000000E+00  0.00000E+00  9.000E+00
      -2    -1     0     0     0   503  0.000000000E+00  0.000000000E+00 -1.309406174E+03  1.309406174E+03  0.000000000E+00  0.00000E+00  9.000E+00
      25     1     1     2     0     0  9.641656808E+00  2.383872198E-01 -8.988997857E+02  9.076009989E+02  1.250029202E+02  0.00000E+00  9.000E+00
       5     1     1     2   501     0 -2.958387433E+00  2.130292085E-01  8.539331165E+00  1.021176353E+01  4.750000000E+00  0.00000E+00  9.000E+00
      -5     1     1     2     0   503 -7.511449930E+00 -6.058953132E+00 -3.223988346E+01  3.398684126E+01  4.750000000E+00  0.00000E+00  9.000E+00
      -2     1     1     2     0   502  8.281805553E-01  5.607536703E+00 -3.721846220E+02  3.722277840E+02  7.629394531E-06  0.00000E+00  9.000E+00
#rwgt            1           9  -1.4935820287735032E-004           3      955671           0
</event>
<event>
      6   9999  3.45752E-01  1.75634E+02 -1.00000E+00  1.10882E-01
      -4    -1     0     0     0   502  0.000000000E+00  0.000000000E+00  4.122843568E+01  4.122843568E+01  0.000000000E+00  0.00000E+00  9.000E+00
      21    -1     0     0   501   511  0.000000000E+00  0.000000000E+00 -1.642417894E+03  1.642417894E+03  0.000000000E+00  0.00000E+00  9.000E+00
      25     1     1     2     0     0  1.535408833E+01 -1.349939486E+02 -7.558225418E+02  7.780440560E+02  1.250028969E+02  0.00000E+00  9.000E+00
       5     1     1     2   501     0  8.642671069E-01 -1.821365060E-01 -4.778870804E+01  4.803231462E+01  4.750000000E+00  0.00000E+00  9.000E+00
      -5     1     1     2     0   502 -9.975043536E+01 -1.932225275E+01 -5.143041962E+02  5.242660274E+02  4.750000000E+00  0.00000E+00  9.000E+00
      -4     1     1     2     0   511  8.353207992E+01  1.544983379E+02 -2.832740122E+02  3.333039315E+02  3.814697266E-06  0.00000E+00  9.000E+00
#rwgt            1           5   7.0912916424447107E-004           3      959600           0
</event>
<event>
      6   9999  3.45752E-01  1.73487E+01 -1.00000E+00  1.65072E-01
      21    -1     0     0   501   502  0.000000000E+00  0.000000000E+00  1.042436587E+01  1.042436587E+01  0.000000000E+00  0.00000E+00  9.000E+00
      21    -1     0     0   512   503  0.000000000E+00  0.000000000E+00 -8.941157758E+02  8.941157758E+02  0.000000000E+00  0.00000E+00  9.000E+00
      25     1     1     2     0     0  1.400790954E+01 -7.067168401E+00 -4.993214474E+02  5.149696108E+02  1.250025031E+02  0.00000E+00  9.000E+00
       5     1     1     2   501     0  1.228943084E+01  3.592344759E+00 -4.667097499E+01  4.862794934E+01  4.750000000E+00  0.00000E+00  9.000E+00
      -5     1     1     2     0   503 -1.955193921E+01  1.945851982E+01 -1.631629934E+02  1.655464806E+02  4.750000000E+00  0.00000E+00  9.000E+00
      21     1     1     2   512   502 -6.745401164E+00 -1.598369617E+01 -1.745359941E+02  1.753961009E+02  1.907348633E-06  0.00000E+00  9.000E+00
#rwgt            1           9   1.8001502819103446E-003           3      959839           0
</event>
<event>
      6   9999 -3.45752E-01  2.01094E+01 -1.00000E+00  1.60030E-01
      21    -1     0     0   511   503  0.000000000E+00  0.000000000E+00  1.274367100E+02  1.274367100E+02  0.000000000E+00  0.00000E+00  9.000E+00
      21    -1     0     0   501   502  0.000000000E+00  0.000000000E+00 -1.735253925E+03  1.735253925E+03  0.000000000E+00  0.00000E+00  9.000E+00
      25     1     1     2     0     0  5.454726312E+01 -6.927208600E+01 -1.127883650E+03  1.138207036E+03  1.249788111E+02  0.00000E+00  9.000E+00
       5     1     1     2   501     0  4.977973539E+00 -2.636523550E+00 -5.725636006E+02  5.726110117E+02  4.750000000E+00  0.00000E+00  9.000E+00
      -5     1     1     2     0   503 -7.499030830E+01  5.905481820E+01  5.789991735E+01  1.117406856E+02  4.750000000E+00  0.00000E+00  9.000E+00
      21     1     1     2   511   502  1.546507164E+01  1.285379135E+01  3.473011841E+01  4.013190149E+01  2.286830675E-06  0.00000E+00  9.000E+00
#rwgt            1           9  -1778.0950762937466                3      961178           0
</event>
<event>
      6   9999  3.45752E-01  9.25047E+00 -1.00000E+00  1.90830E-01
      21    -1     0     0   501   502  0.000000000E+00  0.000000000E+00  2.911313354E+03  2.911313354E+03  0.000000000E+00  0.00000E+00  9.000E+00
      21    -1     0     0   512   503  0.000000000E+00  0.000000000E+00 -2.804298264E+01  2.804298264E+01  0.000000000E+00  0.00000E+00  9.000E+00
      25     1     1     2     0     0 -8.032679418E+00  3.797467536E+00  1.786335893E+02  2.182096749E+02  1.250062329E+02  0.00000E+00  9.000E+00
       5     1     1     2   501     0  1.570742050E+01 -2.446143863E+00  2.706039302E+03  2.706090164E+03  4.750000000E+00  0.00000E+00  9.000E+00
      -5     1     1     2     0   503  1.090899175E+00  1.604141768E+00  1.526930618E+00  5.353255919E+00  4.750000000E+00  0.00000E+00  9.000E+00
      21     1     1     2   512   502 -8.765640259E+00 -2.955465441E+00 -2.929450811E+00  9.703242096E+00  2.269677253E-07  0.00000E+00  9.000E+00
#rwgt            1           9  0.15525549878093461                3      964163           0
</event>
<event>
      6   9999  3.45752E-01  1.01364E+01 -1.00000E+00  1.86576E-01
      21    -1     0     0   501   502  0.000000000E+00  0.000000000E+00  2.909971212E+02  2.909971212E+02  0.000000000E+00  0.00000E+00  9.000E+00
      21    -1     0     0   511   503  0.000000000E+00  0.000000000E+00 -6.737587654E+02  6.737587654E+02  0.000000000E+00  0.00000E+00  9.000E+00
      25     1     1     2     0     0 -4.646583957E+01 -1.301820652E+01  1.247964344E+02  1.831061170E+02  1.250006084E+02  0.00000E+00  9.000E+00
       5     1     1     2   501     0  2.593518801E+00 -1.830336158E+00  1.311098739E+02  1.312342867E+02  4.750000000E+00  0.00000E+00  9.000E+00
      -5     1     1     2     0   503  4.461957790E+01  2.495737529E+01 -1.073139005E+02  1.189647555E+02  4.750000000E+00  0.00000E+00  9.000E+00
      21     1     1     2   511   502 -7.472571268E-01 -1.010883261E+01 -5.313540521E+02  5.314507273E+02  1.078959322E-05  0.00000E+00  9.000E+00
#rwgt            1           9   5.7703872460047548E-003           3      968444           0
</event>
<event>
      6   9999  3.45752E-01  1.20800E+01 -1.00000E+00  1.78944E-01
      21    -1     0     0   501   512  0.000000000E+00  0.000000000E+00  7.286646380E+01  7.286646380E+01  0.000000000E+00  0.00000E+00  9.000E+00
      21    -1     0     0   502   503  0.000000000E+00  0.000000000E+00 -9.954990899E+01  9.954990899E+01  0.000000000E+00  0.00000E+00  9.000E+00
      25     1     1     2     0     0 -3.978032276E+00  5.829466250E-01 -4.396080059E+01  1.325670372E+02  1.250012112E+02  0.00000E+00  9.000E+00
       5     1     1     2   501     0  1.333612256E+00 -5.199530754E-01  8.334697762E+00  9.699410272E+00  4.750000000E+00  0.00000E+00  9.000E+00
      -5     1     1     2     0   503  1.454772843E+01 -2.121354464E+00  5.856620526E-01  1.546098468E+01  4.750000000E+00  0.00000E+00  9.000E+00
      21     1     1     2   502   512 -1.190330841E+01  2.058360914E+00  8.356995588E+00  1.468894060E+01  1.192092896E-07  0.00000E+00  9.000E+00
#rwgt            1           9   2.0582962005703188E-002           3      971802           0
</event>
<event>
      6   9999  3.45752E-01  4.47152E+01 -1.00000E+00  1.37436E-01
      21    -1     0     0   501   502  0.000000000E+00  0.000000000E+00  5.533767666E+02  5.533767666E+02  0.000000000E+00  0.00000E+00  9.000E+00
      -2    -1     0     0     0   503  0.000000000E+00  0.000000000E+00 -3.972175162E+02  3.972175162E+02  0.000000000E+00  0.00000E+00  9.000E+00
      25     1     1     2     0     0 -2.090232325E+01  4.235339044E+01  1.424591705E+02  1.953264330E+02  1.250083333E+02  0.00000E+00  9.000E+00
       5     1     1     2   501     0 -8.621914290E+00  4.814561476E+00  3.013478315E+02  3.015470037E+02  4.750000000E+00  0.00000E+00  9.000E+00
      -5     1     1     2     0   503 -3.862896444E+00 -1.742319879E+01  8.064043991E+01  8.272806582E+01  4.750000000E+00  0.00000E+00  9.000E+00
      -2     1     1     2     0   502  3.338713398E+01 -2.974475312E+01 -3.682881915E+02  3.709927803E+02  5.394796609E-06  0.00000E+00  9.000E+00
#rwgt            1           9   1.5261823480947428E-005           3      973840           0
</event>
<event>
      6   9999  3.45752E-01  1.80511E+01 -1.00000E+00  1.63685E-01
      21    -1     0     0   511   502  0.000000000E+00  0.000000000E+00  5.699240051E+01  5.699240051E+01  0.000000000E+00  0.00000E+00  9.000E+00
      21    -1     0     0   502   503  0.000000000E+00  0.000000000E+00 -1.182645593E+03  1.182645593E+03  0.000000000E+00  0.00000E+00  9.000E+00
      25     1     1     2     0     0  1.000400069E+01  8.338319104E-01 -1.055583919E+03  1.063005660E+03  1.249913932E+02  0.00000E+00  9.000E+00
       5     1     1     2   501     0  3.111787284E+00 -7.450432255E-01  3.033290524E+01  3.086885080E+01  4.750000000E+00  0.00000E+00  9.000E+00
      -5     1     1     2     0   503  4.425588866E+00  4.170475493E+00 -1.193467779E+02  1.195959640E+02  4.750000000E+00  0.00000E+00  9.000E+00
      21     1     1     2   511   501 -1.754137684E+01 -4.259264178E+00  1.894459865E+01  2.616751901E+01  8.596304120E-07  0.00000E+00  9.000E+00
#rwgt            1           9   9.5644625933944392E-004           3      974664           0
</event>
<event>
      6   9999  3.45752E-01  7.89875E+00 -1.00000E+00  1.98672E-01
      21    -1     0     0   501   502  0.000000000E+00  0.000000000E+00  8.436932518E+01  8.436932518E+01  0.000000000E+00  0.00000E+00  9.000E+00
      21    -1     0     0   502   512  0.000000000E+00  0.000000000E+00 -1.326068830E+03  1.326068830E+03  0.000000000E+00  0.00000E+00  9.000E+00
      25     1     1     2     0     0 -3.186711833E+01  2.635621090E+01 -2.070207329E+02  2.453425818E+02  1.250009419E+02  0.00000E+00  9.000E+00
       5     1     1     2   501     0 -4.718116013E+00 -5.832936928E+00  5.770201540E+01  5.838123716E+01  4.750000000E+00  0.00000E+00  9.000E+00
      -5     1     1     2     0   503  2.914189756E+01 -2.316657156E+01 -4.208317395E+01  5.638702210E+01  4.750000000E+00  0.00000E+00  9.000E+00
      21     1     1     2   503   512  7.443336780E+00  2.643297592E+00 -1.050297614E+03  1.050327314E+03  1.525878906E-05  0.00000E+00  9.000E+00
#rwgt            1           9   5.5685343748846600E-005           3      976891           0
</event>
<event>
      6   9999  3.45752E-01  8.41349E+01 -1.00000E+00  1.23712E-01
      21    -1     0     0   511   502  0.000000000E+00  0.000000000E+00  4.273384247E+01  4.273384247E+01  0.000000000E+00  0.00000E+00  9.000E+00
       2    -1     0     0   501     0  0.000000000E+00  0.000000000E+00 -2.136019362E+03  2.136019362E+03  0.000000000E+00  0.00000E+00  9.000E+00
      25     1     1     2     0     0 -2.953838384E+00  1.727281055E+02 -1.840397764E+03  1.852709233E+03  1.249953928E+02  0.00000E+00  9.000E+00
       5     1     1     2   501     0 -1.836487410E+01 -2.488902645E+01 -6.691642070E+01  7.387220112E+01  4.750000000E+00  0.00000E+00  9.000E+00
      -5     1     1     2     0   502  4.444552679E+01 -6.694510590E+01 -1.233444216E+02  1.472870018E+02  4.750000000E+00  0.00000E+00  9.000E+00
       2     1     1     2   511     0 -2.312681431E+01 -8.089397318E+01 -6.262691316E+01  1.048847686E+02  4.101908334E-06  0.00000E+00  9.000E+00
#rwgt            1           3   7.0070234883358798E-003           3      980397           0
</event>
<event>
      6   9999  3.45752E-01  1.60384E+01 -1.00000E+00  1.67890E-01
       2    -1     0     0   502     0  0.000000000E+00  0.000000000E+00  1.924402912E+03  1.924402912E+03  0.000000000E+00  0.00000E+00  9.000E+00
      21    -1     0     0   501   502  0.000000000E+00  0.000000000E+00 -2.252763303E+02  2.252763303E+02  0.000000000E+00  0.00000E+00  9.000E+00
      25     1     1     2     0     0  2.829291827E+01  1.469781915E+01 -1.895634950E+02  2.292934631E+02  1.249986339E+02  0.00000E+00  9.000E+00
       5     1     1     2   501     0 -3.341453302E-01  3.731870796E-01  4.664705769E-01  4.799064127E+00  4.750000000E+00  0.00000E+00  9.000E+00
      -5     1     1     2     0   503 -3.327502384E+01  6.065270875E-02  7.048803238E+00  3.434354405E+01  4.750000000E+00  0.00000E+00  9.000E+00
       2     1     1     2   503     0  5.316250902E+00 -1.513165893E+01  1.881174803E+03  1.881243171E+03  3.737624730E-05  0.00000E+00  9.000E+00
#rwgt            1           9   1.1384185355788952E-003           3      981896           0
</event>
<event>
      6   9999  3.45752E-01  1.08270E+01 -1.00000E+00  1.83630E-01
      21    -1     0     0   501   511  0.000000000E+00  0.000000000E+00  1.657413254E+01  1.657413254E+01  0.000000000E+00  0.00000E+00  9.000E+00
      21    -1     0     0   502   503  0.000000000E+00  0.000000000E+00 -8.519676097E+02  8.519676097E+02  0.000000000E+00  0.00000E+00  9.000E+00
      25     1     1     2     0     0  1.391455400E+01 -3.394293660E+01 -4.862675367E+02  5.034146861E+02  1.249979648E+02  0.00000E+00  9.000E+00
       5     1     1     2   501     0 -2.387731370E+00  1.481379815E+00  2.357982027E+00  6.001527013E+00  4.750000000E+00  0.00000E+00  9.000E+00
      -5     1     1     2     0   503 -2.235385469E+01  3.245576376E+01 -3.432130612E+02  3.455008529E+02  4.750000000E+00  0.00000E+00  9.000E+00
      21     1     1     2   502   511  1.082703206E+01  5.793024475E-03 -8.270861221E+00  1.362467622E+01  0.000000000E+00  0.00000E+00  9.000E+00
#rwgt            1           9   5.1835446281694303E-004           3      983596           0
</event>
<event>
      6   9999  3.45752E-01  1.24373E+01 -1.00000E+00  1.77738E-01
      21    -1     0     0   502   503  0.000000000E+00  0.000000000E+00  3.245279867E+02  3.245279867E+02  0.000000000E+00  0.00000E+00  9.000E+00
      21    -1     0     0   501   512  0.000000000E+00  0.000000000E+00 -1.731985649E+01  1.731985649E+01  0.000000000E+00  0.00000E+00  9.000E+00
      25     1     1     2     0     0 -1.915054770E+00 -8.390900748E+00  2.642839136E+02  2.924822378E+02  1.250031910E+02  0.00000E+00  9.000E+00
       5     1     1     2   501     0  3.599682188E+00 -3.544769137E+00  1.407294893E+01  1.568864212E+01  4.750000000E+00  0.00000E+00  9.000E+00
      -5     1     1     2     0   503  2.664180386E-01 -3.476069606E-01  1.018534936E+01  1.124702853E+01  4.750000000E+00  0.00000E+00  9.000E+00
      21     1     1     2   502   512 -1.951045457E+00  1.228327685E+01  1.866591828E+01  2.242993477E+01  2.384185791E-07  0.00000E+00  9.000E+00
#rwgt            1           9   2.4759287833893517E-003           3      985822           0
</event>
<event>
      6   9999  3.45752E-01  2.03409E+01 -1.00000E+00  1.59652E-01
      21    -1     0     0   501   511  0.000000000E+00  0.000000000E+00  2.743001648E+01  2.743001648E+01  0.000000000E+00  0.00000E+00  9.000E+00
      21    -1     0     0   502   503  0.000000000E+00  0.000000000E+00 -1.002310380E+03  1.002310380E+03  0.000000000E+00  0.00000E+00  9.000E+00
      25     1     1     2     0     0  1.574181678E+01 -6.589383969E+01 -4.171400620E+02  4.407040443E+02  1.249976817E+02  0.00000E+00  9.000E+00
       5     1     1     2   501     0 -3.013812023E-01 -5.253927016E+00  5.174879496E+00  8.777041501E+00  4.750000000E+00  0.00000E+00  9.000E+00
      -5     1     1     2     0   503 -1.751351453E+01  5.091280981E+01 -5.562272650E+02  5.588471796E+02  4.750000000E+00  0.00000E+00  9.000E+00
      21     1     1     2   502   511  2.073078957E+00  2.023495689E+01 -6.687916125E+00  2.141213111E+01  5.397430145E-07  0.00000E+00  9.000E+00
#rwgt            1           9   1.4653659278528396E-003           3      987459           0
</event>
<event>
      6   9999  3.45752E-01  7.81949E+00 -1.00000E+00  1.99196E-01
      21    -1     0     0   501   502  0.000000000E+00  0.000000000E+00  1.938218736E+01  1.938218736E+01  0.000000000E+00  0.00000E+00  9.000E+00
      21    -1     0     0   502   512  0.000000000E+00  0.000000000E+00 -1.140233043E+03  1.140233043E+03  0.000000000E+00  0.00000E+00  9.000E+00
      25     1     1     2     0     0 -3.262528427E+00 -2.205329163E+00 -9.153503787E+02  9.238540882E+02  1.249982119E+02  0.00000E+00  9.000E+00
       5     1     1     2   501     0 -5.646857029E-03 -4.274511167E-01  1.438058558E+01  1.515079166E+01  4.750000000E+00  0.00000E+00  9.000E+00
      -5     1     1     2     0   503 -2.995842899E+00 -2.047664594E+00 -3.120693804E+01  3.177425824E+01  4.750000000E+00  0.00000E+00  9.000E+00
      21     1     1     2   503   512  6.264018183E+00  4.680444874E+00 -1.886741244E+02  1.888360922E+02  0.000000000E+00  0.00000E+00  9.000E+00
#rwgt            1           9   1.2856622018055277E-003           3      989274           0
</event>
<event>
      6   9999  3.45752E-01  5.94594E+00 -1.00000E+00  2.14607E-01
      21    -1     0     0   501   502  0.000000000E+00  0.000000000E+00  8.104351524E+00  8.104351524E+00  0.000000000E+00  0.00000E+00  9.000E+00
      21    -1     0     0   502   511  0.000000000E+00  0.000000000E+00 -7.814038167E+02  7.814038167E+02  0.000000000E+00  0.00000E+00  9.000E+00
      25     1     1     2     0     0  5.915230290E+00 -6.336069452E+00 -7.028636957E+02  7.139488063E+02  1.250215485E+02  0.00000E+00  9.000E+00
       5     1     1     2   501     0  2.568534534E-01 -6.654564438E-01 -1.077852123E+00  4.922709739E+00  4.750000000E+00  0.00000E+00  9.000E+00
      -5     1     1     2     0   503 -8.456061659E-01  4.359028395E+00 -2.308367205E+01  2.398196392E+01  4.750000000E+00  0.00000E+00  9.000E+00
      21     1     1     2   503   511 -5.326477578E+00  2.642497500E+00 -4.627424528E+01  4.665468822E+01  6.743495762E-07  0.00000E+00  9.000E+00
#rwgt            1           9  0.11434757574877380                3      992689           0
</event>
<event>
      6   9999  3.45752E-01  4.87417E+01 -1.00000E+00  1.35383E-01
      21    -1     0     0   512   502  0.000000000E+00  0.000000000E+00  2.953950910E+01  2.953950910E+01  0.000000000E+00  0.00000E+00  9.000E+00
       2    -1     0     0   501     0  0.000000000E+00  0.000000000E+00 -2.163662480E+03  2.163662480E+03  0.000000000E+00  0.00000E+00  9.000E+00
      25     1     1     2     0     0  4.713327269E-01 -4.345152119E+01 -1.626548350E+03  1.631922986E+03  1.249993536E+02  0.00000E+00  9.000E+00
       5     1     1     2   501     0  7.326290355E+00  2.186164021E+00  1.478061041E+01  1.730557099E+01  4.750000000E+00  0.00000E+00  9.000E+00
      -5     1     1     2     0   502  4.052282437E+01  4.765967195E+01 -9.499541727E+01  1.138430298E+02  4.750000000E+00  0.00000E+00  9.000E+00
       2     1     1     2   512     0 -4.832044745E+01 -6.394314780E+00 -4.273598134E+02  4.301304023E+02  5.394796609E-06  0.00000E+00  9.000E+00
#rwgt            1           3   2.3782519363906238E-004           3      996178           0
</event>
<event>
      6   9999  3.45752E-01  6.51606E+00 -1.00000E+00  2.09185E-01
      21    -1     0     0   501   502  0.000000000E+00  0.000000000E+00  5.717419240E+02  5.717419240E+02  0.000000000E+00  0.00000E+00  9.000E+00
      21    -1     0     0   511   503  0.000000000E+00  0.000000000E+00 -1.703973514E+01  1.703973514E+01  0.000000000E+00  0.00000E+00  9.000E+00
      25     1     1     2     0     0  8.149430567E+00  2.076616795E+01  3.732861625E+02  3.942908808E+02  1.250003703E+02  0.00000E+00  9.000E+00
       5     1     1     2   501     0 -1.130832543E+00  8.902645165E-01  1.308943560E+02  1.309884204E+02  4.750000000E+00  0.00000E+00  9.000E+00
      -5     1     1     2     0   503 -1.015186587E+01 -1.594314856E+01  5.304732807E+01  5.651394414E+01  4.750000000E+00  0.00000E+00  9.000E+00
      21     1     1     2   511   502  3.133267849E+00 -5.713283909E+00 -2.525657738E+00  6.988413801E+00  3.710359215E-07  0.00000E+00  9.000E+00
#rwgt            1           9   4.3714089390644412E-004           3      998736           0
</event>
<event>
      6   9999  3.45752E-01  1.82096E+01 -1.00000E+00  1.63383E-01
      21    -1     0     0   501   502  0.000000000E+00  0.000000000E+00  6.924037444E+01  6.924037444E+01  0.000000000E+00  0.00000E+00  9.000E+00
      21    -1     0     0   512   503  0.000000000E+00  0.000000000E+00 -3.725500665E+02  3.725500665E+02  0.000000000E+00  0.00000E+00  9.000E+00
      25     1     1     2     0     0  3.873879966E+00 -2.778958296E+01 -1.900484641E+02  2.291957558E+02  1.250000315E+02  0.00000E+00  9.000E+00
       5     1     1     2   501     0  2.131587500E+00  8.078564421E+00  4.404869020E+01  4.508499171E+01  4.750000000E+00  0.00000E+00  9.000E+00
      -5     1     1     2     0   503 -1.259988174E+01  3.668457094E+01 -9.945679702E+01  1.068584659E+02  4.750000000E+00  0.00000E+00  9.000E+00
      21     1     1     2   512   502  6.594414276E+00 -1.697355240E+01 -5.785312105E+01  6.065122749E+01  9.536743164E-07  0.00000E+00  9.000E+00
#rwgt            1           9   1.7403737288450142E-004           3     1002117           0
</event>
<event>
      6   9999  3.45752E-01  2.00209E+01 -1.00000E+00  1.60176E-01
      21    -1     0     0   501   502  0.000000000E+00  0.000000000E+00  1.078210687E+03  1.078210687E+03  0.000000000E+00  0.00000E+00  9.000E+00
      21    -1     0     0   511   503  0.000000000E+00  0.000000000E+00 -1.533868629E+02  1.533868629E+02  0.000000000E+00  0.00000E+00  9.000E+00
      25     1     1     2     0     0  2.950115462E+01 -3.430404148E+01  4.095254391E+02  4.305621075E+02  1.250022311E+02  0.00000E+00  9.000E+00
       5     1     1     2   501     0  8.395305439E-01 -1.022378087E+00  2.112672939E+02  2.113248259E+02  4.750000000E+00  0.00000E+00  9.000E+00
      -5     1     1     2     0   503 -2.741079029E+01  1.552104161E+01  4.455978680E+02  4.467351303E+02  4.750000000E+00  0.00000E+00  9.000E+00
      21     1     1     2   511   502 -2.929894878E+00  1.980537796E+01 -1.415667770E+02  1.429754861E+02  2.697398305E-06  0.00000E+00  9.000E+00
#rwgt            1           9   2.4750577759306182E-006           3     1004394           0
</event>
<event>
      6   9999 -3.45752E-01  2.03273E+01 -1.00000E+00  1.59674E-01
       2    -1     0     0   501     0  0.000000000E+00  0.000000000E+00  7.192735968E+01  7.192735968E+01  0.000000000E+00  0.00000E+00  9.000E+00
      21    -1     0     0   502   503  0.000000000E+00  0.000000000E+00 -1.274482332E+03  1.274482332E+03  0.000000000E+00  0.00000E+00  9.000E+00
      25     1     1     2     0     0 -8.252745643E+00  1.174830432E+01 -1.029635471E+03  1.037294496E+03  1.249981550E+02  0.00000E+00  9.000E+00
       5     1     1     2   501     0  6.983400902E+00 -8.099279054E+00  2.610070484E+01  2.860376727E+01  4.750000000E+00  0.00000E+00  9.000E+00
      -5     1     1     2     0   503  2.067819755E+01 -9.690033145E+00 -2.366209850E+02  2.377678229E+02  4.750000000E+00  0.00000E+00  9.000E+00
       2     1     1     2   502     0 -1.940885281E+01  6.041007883E+00  3.760077794E+01  4.274360590E+01  2.078484985E-06  0.00000E+00  9.000E+00
#rwgt            1           9  -2.7004292178496716E-004           3     1006181           0
</event>
<event>
      6   9999  3.45752E-01  1.33483E+01 -1.00000E+00  1.74883E-01
      21    -1     0     0   501   511  0.000000000E+00  0.000000000E+00  8.098314746E+01  8.098314746E+01  0.000000000E+00  0.00000E+00  9.000E+00
      21    -1     0     0   502   503  0.000000000E+00  0.000000000E+00 -1.365111693E+03  1.365111693E+03  0.000000000E+00  0.00000E+00  9.000E+00
      25     1     1     2     0     0  4.371643974E+01  7.148545409E+01 -2.834457686E+02  3.209170796E+02  1.249998839E+02  0.00000E+00  9.000E+00
       5     1     1     2   501     0  9.010565648E-01  3.492481030E+00  3.277576146E+01  3.331399655E+01  4.750000000E+00  0.00000E+00  9.000E+00
      -5     1     1     2     0   503 -5.796067482E+01 -7.534693196E+01 -1.058880967E+03  1.063150066E+03  4.750000000E+00  0.00000E+00  9.000E+00
      21     1     1     2   502   511  1.334317852E+01  3.689968380E-01  2.542242834E+01  2.871369768E+01  1.118282261E-06  0.00000E+00  9.000E+00
#rwgt            1           9   1.2500138388242055E-003           3     1008664           0
</event>
<event>
      6   9999 -3.45752E-01  5.96492E+00 -1.00000E+00  2.14413E-01
      21    -1     0     0   501   502  0.000000000E+00  0.000000000E+00  2.979467353E+01  2.979467353E+01  0.000000000E+00  0.00000E+00  9.000E+00
      21    -1     0     0   512   503  0.000000000E+00  0.000000000E+00 -1.300002985E+03  1.300002985E+03  0.000000000E+00  0.00000E+00  9.000E+00
      25     1     1     2     0     0  2.940270874E+01 -3.120712569E+01 -3.644521542E+02  3.876717569E+02  1.250024575E+02  0.00000E+00  9.000E+00
       5     1     1     2   501     0 -2.771757105E+00 -2.738270283E+00  1.712916969E+01  1.819757445E+01  4.750000000E+00  0.00000E+00  9.000E+00
      -5     1     1     2     0   503 -2.257280474E+01  2.957369911E+01 -7.456797012E+02  7.466223372E+02  4.750000000E+00  0.00000E+00  9.000E+00
      21     1     1     2   512   502 -4.058146903E+00  4.371696860E+00 -1.772056259E+02  1.773059902E+02  2.697398305E-06  0.00000E+00  9.000E+00
#rwgt            1           9  -4.6719182147135834E-003           3     1012186           0
</event>
<event>
      6   9999  3.45752E-01  5.36701E+00 -1.00000E+00  2.21032E-01
      21    -1     0     0   501   502  0.000000000E+00  0.000000000E+00  7.247161464E+00  7.247161464E+00  0.000000000E+00  0.00000E+00  9.000E+00
      21    -1     0     0   511   503  0.000000000E+00  0.000000000E+00 -7.713784875E+02  7.713784875E+02  0.000000000E+00  0.00000E+00  9.000E+00
      25     1     1     2     0     0 -4.434683909E+00 -1.375574117E+00 -5.666022108E+02  5.802447302E+02  1.249972919E+02  0.00000E+00  9.000E+00
       5     1     1     2   501     0 -1.799887480E-02  1.217911482E+00 -3.292630654E+01  3.328945471E+01  4.750000000E+00  0.00000E+00  9.000E+00
      -5     1     1     2     0   503 -9.122774147E-01  3.060422892E-01 -3.061741871E+01  3.099862482E+01  4.750000000E+00  0.00000E+00  9.000E+00
      21     1     1     2   511   502  5.364960199E+00 -1.483796539E-01 -1.339853899E+02  1.340928392E+02  0.000000000E+00  0.00000E+00  9.000E+00
#rwgt            1           9   3.1419035977028830E-003           3     1017130           0
</event>
<event>
      6   9999  3.45752E-01  4.35002E+00 -1.00000E+00  2.40543E-01
       2    -1     0     0   502     0  0.000000000E+00  0.000000000E+00  7.114148377E+02  7.114148377E+02  0.000000000E+00  0.00000E+00  9.000E+00
      21    -1     0     0   501   502  0.000000000E+00  0.000000000E+00 -8.993762324E+02  8.993762324E+02  0.000000000E+00  0.00000E+00  9.000E+00
      25     1     1     2     0     0 -7.328409563E+00 -3.613662878E-01 -8.457866959E+02  8.550052032E+02  1.249997054E+02  0.00000E+00  9.000E+00
       5     1     1     2   501     0 -4.454530084E-01  1.544809185E-01 -5.716463846E+00  7.447331847E+00  4.750000000E+00  0.00000E+00  9.000E+00
      -5     1     1     2     0   503  8.379789670E+00  4.514493345E+00 -4.172430574E+01  4.305904916E+01  4.750000000E+00  0.00000E+00  9.000E+00
       2     1     1     2   503     0 -6.059270986E-01 -4.307607975E+00  7.052660708E+02  7.052794859E+02  7.629394531E-06  0.00000E+00  9.000E+00
#rwgt            1           9   5.6690404141145816E-005           3     1019861           0
</event>
<event>
      6   9999  3.45752E-01  9.74398E+00 -1.00000E+00  1.88388E-01
      21    -1     0     0   501   511  0.000000000E+00  0.000000000E+00  1.557954423E+01  1.557954423E+01  0.000000000E+00  0.00000E+00  9.000E+00
      21    -1     0     0   502   503  0.000000000E+00  0.000000000E+00 -7.782500493E+02  7.782500493E+02  0.000000000E+00  0.00000E+00  9.000E+00
      25     1     1     2     0     0  8.318474330E+00  1.198002079E+00 -7.553908152E+02  7.657101723E+02  1.250046083E+02  0.00000E+00  9.000E+00
       5     1     1     2   501     0  1.308057950E+00  1.797249183E+00  2.026429471E-01  5.248303001E+00  4.750000000E+00  0.00000E+00  9.000E+00
      -5     1     1     2     0   503 -3.278235997E-01 -8.333653886E-02 -1.141112640E+01  1.236489866E+01  4.750000000E+00  0.00000E+00  9.000E+00
      21     1     1     2   502   511 -9.298708680E+00 -2.911914724E+00  3.928793558E+00  1.050621955E+01  3.291774099E-07  0.00000E+00  9.000E+00
#rwgt            1           9   4.7947912975805302E-003           3     1024439           0
</event>
<event>
      6   9999  3.45752E-01  2.46695E+02 -1.00000E+00  1.05831E-01
       2    -1     0     0   501     0  0.000000000E+00  0.000000000E+00  3.774171772E+02  3.774171772E+02  0.000000000E+00  0.00000E+00  9.000E+00
      21    -1     0     0   512   502  0.000000000E+00  0.000000000E+00 -4.182009054E+02  4.182009054E+02  0.000000000E+00  0.00000E+00  9.000E+00
      25     1     1     2     0     0  1.156817872E+02  4.120408936E+01 -2.817436711E+02  3.317932009E+02  1.250087162E+02  0.00000E+00  9.000E+00
       5     1     1     2   501     0  1.102814752E+02  3.019862687E+01  7.485492184E+01  1.367471487E+02  4.750000000E+00  0.00000E+00  9.000E+00
      -5     1     1     2     0   502  8.631974634E+00  4.908469103E+00 -1.672261551E+01  2.002030031E+01  4.750000000E+00  0.00000E+00  9.000E+00
       2     1     1     2   512     0 -2.345952370E+02 -7.631118534E+01  1.828276366E+02  3.070574327E+02  4.672030912E-06  0.00000E+00  9.000E+00
#rwgt            1           4   3.2009310202918600E-006           3     1026631           0
</event>
<event>
      6   9999  3.45752E-01  4.51978E+00 -1.00000E+00  2.37357E-01
      21    -1     0     0   502   511  0.000000000E+00  0.000000000E+00  7.506313353E+00  7.506313353E+00  0.000000000E+00  0.00000E+00  9.000E+00
      21    -1     0     0   501   502  0.000000000E+00  0.000000000E+00 -6.976675376E+02  6.976675376E+02  0.000000000E+00  0.00000E+00  9.000E+00
      25     1     1     2     0     0  3.407297318E+00 -1.697943409E+00 -6.264673654E+02  6.388286534E+02  1.250047832E+02  0.00000E+00  9.000E+00
       5     1     1     2   501     0  1.063859774E+00 -4.471335354E-01 -4.086531792E+01  4.115663293E+01  4.750000000E+00  0.00000E+00  9.000E+00
      -5     1     1     2     0   503 -1.370929084E+00 -1.143842439E+00 -1.739946422E+01  1.812433936E+01  4.750000000E+00  0.00000E+00  9.000E+00
      21     1     1     2   503   511 -3.100228007E+00  3.288919383E+00 -5.429076748E+00  7.064225275E+00  2.731427965E-07  0.00000E+00  9.000E+00
#rwgt            1           9   1.3035582220326070E-002           3     1026824           0
</event>
<event>
      6   9999  3.45752E-01  1.08071E+01 -1.00000E+00  1.83712E-01
       2    -1     0     0   502     0  0.000000000E+00  0.000000000E+00  9.386047176E+01  9.386047176E+01  0.000000000E+00  0.00000E+00  9.000E+00
      21    -1     0     0   501   502  0.000000000E+00  0.000000000E+00 -9.626432130E+02  9.626432130E+02  0.000000000E+00  0.00000E+00  9.000E+00
      25     1     1     2     0     0  5.397453119E+01 -6.089773953E+01 -4.087029489E+02  4.350833657E+02  1.250505894E+02  0.00000E+00  9.000E+00
       5     1     1     2   501     0 -6.578971104E+01  4.911316800E+01 -4.682964830E+02  4.754624568E+02  4.750000000E+00  0.00000E+00  9.000E+00
      -5     1     1     2     0   503  2.313229819E+00  6.636142569E+00 -6.822788637E+01  6.875315556E+01  4.750000000E+00  0.00000E+00  9.000E+00
       2     1     1     2   503     0  9.501950031E+00  5.148428957E+00  7.644457708E+01  7.720470672E+01  2.336015456E-06  0.00000E+00  9.000E+00
#rwgt            1           9   2.6200159334253902E-003           3     1030438           0
</event>
<event>
      6   9999  3.45752E-01  2.76517E+01 -1.00000E+00  1.50165E-01
      21    -1     0     0   501   502  0.000000000E+00  0.000000000E+00  2.526886679E+01  2.526886679E+01  0.000000000E+00  0.00000E+00  9.000E+00
       2    -1     0     0   502     0  0.000000000E+00  0.000000000E+00 -2.013342885E+03  2.013342885E+03  0.000000000E+00  0.00000E+00  9.000E+00
      25     1     1     2     0     0  4.936872442E+01  2.588717586E+01 -2.771491271E+02  3.091039305E+02  1.250047374E+02  0.00000E+00  9.000E+00
       5     1     1     2   501     0 -1.409507862E+00  3.180958958E+00  7.506315934E+00  9.540046709E+00  4.750000000E+00  0.00000E+00  9.000E+00
      -5     1     1     2     0   503 -4.139937640E+01 -2.205783065E+00 -7.665210651E+02  7.676560946E+02  4.750000000E+00  0.00000E+00  9.000E+00
       2     1     1     2   503     0 -6.559840164E+00 -2.686235175E+01 -9.519101419E+02  9.523116799E+02  0.000000000E+00  0.00000E+00  9.000E+00
#rwgt            1           9   8.4254356969988271E-004           3     1033207           0
</event>
<event>
      6   9999  3.45752E-01  3.40369E+00 -1.00000E+00  2.63316E-01
      21    -1     0     0   501   502  0.000000000E+00  0.000000000E+00  9.694861308E+01  9.694861308E+01  0.000000000E+00  0.00000E+00  9.000E+00
      21    -1     0     0   502   511  0.000000000E+00  0.000000000E+00 -1.621147178E+03  1.621147178E+03  0.000000000E+00  0.00000E+00  9.000E+00
      25     1     1     2     0     0 -1.474827298E+01 -2.817457463E+01 -1.171688178E+03  1.178766742E+03  1.250061085E+02  0.00000E+00  9.000E+00
       5     1     1     2   501     0 -1.977544987E+01  6.351714536E+00  9.117071591E+01  9.362731778E+01  4.750000000E+00  0.00000E+00  9.000E+00
      -5     1     1     2     0   503  3.118624630E+01  2.115475815E+01 -3.705760984E+02  3.725175338E+02  4.750000000E+00  0.00000E+00  9.000E+00
      21     1     1     2   503   511  3.337476552E+00  6.681019495E-01 -7.310500428E+01  7.318419748E+01  9.536743164E-07  0.00000E+00  9.000E+00
#rwgt            1           9   3.0389211774716586E-004           3     1034987           0
</event>
<event>
      6   9999  3.45752E-01  1.64338E+01 -1.00000E+00  1.67006E-01
      21    -1     0     0   512   502  0.000000000E+00  0.000000000E+00  7.893702378E+01  7.893702378E+01  0.000000000E+00  0.00000E+00  9.000E+00
      21    -1     0     0   502   503  0.000000000E+00  0.000000000E+00 -7.389150532E+02  7.389150532E+02  0.000000000E+00  0.00000E+00  9.000E+00
      25     1     1     2     0     0 -1.521541808E+01  1.059231050E+01 -6.938342790E+02  7.052492917E+02  1.250074029E+02  0.00000E+00  9.000E+00
       5     1     1     2   501     0  6.543765745E-01 -6.885073807E+00  6.807932086E+01  6.859437935E+01  4.750000000E+00  0.00000E+00  9.000E+00
      -5     1     1     2     0   503 -1.797957446E+00 -2.141044161E+00 -2.406598511E+01  2.468908383E+01  4.750000000E+00  0.00000E+00  9.000E+00
      21     1     1     2   512   501  1.635899895E+01 -1.566192537E+00 -1.015708617E+01  1.931932207E+01  3.769728732E-07  0.00000E+00  9.000E+00
#rwgt            1           9   2.1885941316451968E-003           3     1044120           0
</event>
<event>
      6   9999  3.45752E-01  2.12731E+01 -1.00000E+00  1.58191E-01
      21    -1     0     0   511   502  0.000000000E+00  0.000000000E+00  2.367537425E+02  2.367537425E+02  0.000000000E+00  0.00000E+00  9.000E+00
      21    -1     0     0   502   503  0.000000000E+00  0.000000000E+00 -1.757865212E+02  1.757865212E+02  0.000000000E+00  0.00000E+00  9.000E+00
      25     1     1     2     0     0 -1.573312857E+01 -6.722316258E+00 -1.070115643E+02  1.654378463E+02  1.250019409E+02  0.00000E+00  9.000E+00
       5     1     1     2   501     0  7.588648801E-01 -3.257358111E+00  1.863043568E+02  1.863949090E+02  4.750000000E+00  0.00000E+00  9.000E+00
      -5     1     1     2     0   503 -2.329610766E+00 -2.394603577E+00 -3.386749435E+01  3.436176488E+01  4.750000000E+00  0.00000E+00  9.000E+00
      21     1     1     2   511   501  1.730387446E+01  1.237427795E+01  1.554192311E+01  2.634574349E+01  3.769728732E-07  0.00000E+00  9.000E+00
#rwgt            1           9   73.952727170862559                3     1046750           0
</event>
<event>
      6   9999  3.45752E-01  5.31329E+01 -1.00000E+00  1.33390E-01
      21    -1     0     0   502   503  0.000000000E+00  0.000000000E+00  3.826035736E+02  3.826035736E+02  0.000000000E+00  0.00000E+00  9.000E+00
      21    -1     0     0   512   502  0.000000000E+00  0.000000000E+00 -9.427240492E+01  9.427240492E+01  0.000000000E+00  0.00000E+00  9.000E+00
      25     1     1     2     0     0  4.305801562E+01  6.098099394E+01  2.738420513E+02  3.101620327E+02  1.250533613E+02  0.00000E+00  9.000E+00
       5     1     1     2   501     0 -2.411607579E+01  4.781779804E+01 -4.109269229E+00  5.392193908E+01  4.750000000E+00  0.00000E+00  9.000E+00
      -5     1     1     2     0   503 -8.985629607E+00 -5.660709759E+01  3.804423972E+00  5.763801852E+01  4.750000000E+00  0.00000E+00  9.000E+00
      21     1     1     2   512   501 -9.956310230E+00 -5.219169439E+01  1.479396264E+01  5.515398814E+01  2.384185791E-07  0.00000E+00  9.000E+00
#rwgt            1           9   676.95497773710281                3     1048857           0
</event>
<event>
      6   9999  3.45752E-01  1.42358E+01 -1.00000E+00  1.72363E-01
      21    -1     0     0   501   502  0.000000000E+00  0.000000000E+00  9.512093041E+00  9.512093041E+00  0.000000000E+00  0.00000E+00  9.000E+00
      21    -1     0     0   502   511  0.000000000E+00  0.000000000E+00 -8.815904616E+02  8.815904616E+02  0.000000000E+00  0.00000E+00  9.000E+00
      25     1     1     2     0     0  7.206679163E-01  1.421536800E+01 -5.737810617E+02  5.874175860E+02  1.250284670E+02  0.00000E+00  9.000E+00
       5     1     1     2   501     0  5.520748873E-01  1.125905050E+00 -5.317460427E-01  4.941427194E+00  4.750000000E+00  0.00000E+00  9.000E+00
      -5     1     1     2     0   503 -3.617071705E+00 -1.299787726E+00 -1.824930180E+02  1.825952813E+02  4.750000000E+00  0.00000E+00  9.000E+00
      21     1     1     2   503   511  2.344328901E+00 -1.404148532E+01 -1.152725428E+02  1.161482601E+02  1.348699152E-06  0.00000E+00  9.000E+00
#rwgt            1           9   1.7195675324404901E-003           3     1050347           0
</event>
<event>
      6   9999  3.45752E-01  1.04604E+01 -1.00000E+00  1.85158E-01
      -2    -1     0     0     0   502  0.000000000E+00  0.000000000E+00  4.907931360E+02  4.907931360E+02  0.000000000E+00  0.00000E+00  9.000E+00
      21    -1     0     0   502   503  0.000000000E+00  0.000000000E+00 -1.117539601E+03  1.117539601E+03  0.000000000E+00  0.00000E+00  9.000E+00
      25     1     1     2     0     0  1.910790120E+01  1.154254819E+01 -4.423201629E+02  4.601861388E+02  1.250032542E+02  0.00000E+00  9.000E+00
       5     1     1     2   501     0 -1.073429270E+00 -7.310912285E+00  1.912402525E+01  2.104501201E+01  4.750000000E+00  0.00000E+00  9.000E+00
      -5     1     1     2     0   503 -2.507437439E+01 -1.196851311E+01 -6.649681037E+02  6.655652567E+02  4.750000000E+00  0.00000E+00  9.000E+00
      -2     1     1     2     0   501  7.039902454E+00  7.736877204E+00  4.614177761E+02  4.615363297E+02  1.078959322E-05  0.00000E+00  9.000E+00
#rwgt            1           9   1.7050953524878246E-002           3     1052287           0
</event>
<event>
      6   9999  3.45752E-01  2.16010E+01 -1.00000E+00  1.57699E-01
      -3    -1     0     0     0   502  0.000000000E+00  0.000000000E+00  3.262035606E+02  3.262035606E+02  0.000000000E+00  0.00000E+00  9.000E+00
      21    -1     0     0   502   503  0.000000000E+00  0.000000000E+00 -8.020855777E+02  8.020855777E+02  0.000000000E+00  0.00000E+00  9.000E+00
      25     1     1     2     0     0 -9.122759448E+00  6.895810678E+00 -7.895828770E+02  7.994952387E+02  1.249829587E+02  0.00000E+00  9.000E+00
       5     1     1     2   501     0 -7.417695629E+00  1.432722001E+00  3.676765254E+00  9.651735777E+00  4.750000000E+00  0.00000E+00  9.000E+00
      -5     1     1     2     0   503 -3.258692707E+00  3.083518728E-01 -2.198426096E+00  6.173308379E+00  4.750000000E+00  0.00000E+00  9.000E+00
      -3     1     1     2     0   501  1.979914778E+01 -8.636884551E+00  3.122225208E+02  3.129688555E+02  3.814697266E-06  0.00000E+00  9.000E+00
#rwgt            1           9   1.3490422164189843E-005           3     1055930           0
</event>
<event>
      6   9999  3.45752E-01  1.39256E+01 -1.00000E+00  1.73217E-01
      21    -1     0     0   511   502  0.000000000E+00  0.000000000E+00  3.809490457E+01  3.809490457E+01  0.000000000E+00  0.00000E+00  9.000E+00
      21    -1     0     0   502   503  0.000000000E+00  0.000000000E+00 -4.479646163E+02  4.479646163E+02  0.000000000E+00  0.00000E+00  9.000E+00
      25     1     1     2     0     0  2.179921713E+01 -2.912860430E+01 -3.729121656E+02  3.949829654E+02  1.249975129E+02  0.00000E+00  9.000E+00
       5     1     1     2   501     0  1.426480643E+00 -2.389578919E+00  3.715544800E+00  6.641739802E+00  4.750000000E+00  0.00000E+00  9.000E+00
      -5     1     1     2     0   503 -1.190742763E+01  2.340520563E+01 -5.702283263E+01  6.295837057E+01  4.750000000E+00  0.00000E+00  9.000E+00
      21     1     1     2   511   501 -1.131827014E+01  8.112977589E+00  1.634974167E+01  2.147644517E+01  6.307962682E-07  0.00000E+00  9.000E+00
#rwgt            1           9   4.6469969418079668E-002           3     1057363           0
</event>
<event>
      6   9999  3.45752E-01  4.86716E+00 -1.00000E+00  2.31438E-01
      21    -1     0     0   501   502  0.000000000E+00  0.000000000E+00  1.905929887E+02  1.905929887E+02  0.000000000E+00  0.00000E+00  9.000E+00
      21    -1     0     0   502   512  0.000000000E+00  0.000000000E+00 -4.299129252E+02  4.299129252E+02  0.000000000E+00  0.00000E+00  9.000E+00
      25     1     1     2     0     0 -5.196941407E+00  6.391072227E+00 -1.516869188E+02  1.967262710E+02  1.249978013E+02  0.00000E+00  9.000E+00
       5     1     1     2   501     0 -5.553201276E-01  3.625777663E+00  1.674421200E+02  1.675496365E+02  4.750000000E+00  0.00000E+00  9.000E+00
      -5     1     1     2     0   503  1.697540702E+00 -1.270915229E+01 -2.399879543E+02  2.403771722E+02  4.750000000E+00  0.00000E+00  9.000E+00
      21     1     1     2   503   512  4.054720832E+00  2.692302397E+00 -1.508718335E+01  1.585283427E+01  1.685873940E-07  0.00000E+00  9.000E+00
#rwgt            1           9   368.56776527593399                3     1059155           0
</event>
<event>
      6   9999  3.45752E-01  1.32173E+01 -1.00000E+00  1.75275E-01
      21    -1     0     0   501   502  0.000000000E+00  0.000000000E+00  1.594284712E+01  1.594284712E+01  0.000000000E+00  0.00000E+00  9.000E+00
      21    -1     0     0   502   511  0.000000000E+00  0.000000000E+00 -5.985558845E+02  5.985558845E+02  0.000000000E+00  0.00000E+00  9.000E+00
      25     1     1     2     0     0 -1.992277857E+00 -7.094639802E+00 -3.686891536E+02  3.893692926E+02  1.249898034E+02  0.00000E+00  9.000E+00
       5     1     1     2   501     0 -2.367260077E+00 -2.587695328E+00  3.443700372E+00  6.835324398E+00  4.750000000E+00  0.00000E+00  9.000E+00
      -5     1     1     2     0   503 -4.180065738E+00 -4.059229957E-01 -4.899519115E+01  4.940373446E+01  4.750000000E+00  0.00000E+00  9.000E+00
      21     1     1     2   503   511  8.539603671E+00  1.008825812E+01 -1.683723930E+02  1.688903801E+02  2.697398305E-06  0.00000E+00  9.000E+00
#rwgt            1           9   156.58147834877374                3     1065476           0
</event>
<event>
      6   9999 -3.45752E-01  3.46966E+00 -1.00000E+00  2.61371E-01
      21    -1     0     0   512   502  0.000000000E+00  0.000000000E+00  4.023760554E+01  4.023760554E+01  0.000000000E+00  0.00000E+00  9.000E+00
      21    -1     0     0   502   503  0.000000000E+00  0.000000000E+00 -2.448163993E+03  2.448163993E+03  0.000000000E+00  0.00000E+00  9.000E+00
      25     1     1     2     0     0 -1.321581024E+01 -8.182968104E+00 -1.992301097E+03  1.996279044E+03  1.249989656E+02  0.00000E+00  9.000E+00
       5     1     1     2   501     0 -9.537197756E-01  2.998250478E-01 -8.594671311E+00  9.870681406E+00  4.750000000E+00  0.00000E+00  9.000E+00
      -5     1     1     2     0   503  1.405334510E+01  1.135085586E+01 -4.443646001E+02  4.447570110E+02  4.750000000E+00  0.00000E+00  9.000E+00
      21     1     1     2   512   501  1.161849149E-01 -3.467712802E+00  3.733398119E+01  3.749486208E+01  4.156969970E-06  0.00000E+00  9.000E+00
#rwgt            1           9  -4.1882576216002087E-003           3     1068180           0
</event>
<event>
      6   9999 -3.45752E-01  2.13910E+01 -1.00000E+00  1.58013E-01
      -2    -1     0     0     0   503  0.000000000E+00  0.000000000E+00  7.357819095E+01  7.357819095E+01  0.000000000E+00  0.00000E+00  9.000E+00
      21    -1     0     0   501   502  0.000000000E+00  0.000000000E+00 -1.160437439E+03  1.160437439E+03  0.000000000E+00  0.00000E+00  9.000E+00
      25     1     1     2     0     0  2.406906611E+01 -2.561645733E+00 -8.036831791E+02  8.137044596E+02  1.249896531E+02  0.00000E+00  9.000E+00
       5     1     1     2   501     0 -2.300109882E+01  1.347579529E+01 -2.196179343E+02  2.212809236E+02  4.750000000E+00  0.00000E+00  9.000E+00
      -5     1     1     2     0   503 -3.977667411E+00  1.027799317E+01 -1.293206030E+02  1.298762482E+02  4.750000000E+00  0.00000E+00  9.000E+00
      -2     1     1     2     0   502  2.909700128E+00 -2.119214272E+01  6.576246830E+01  6.915399848E+01  3.568322551E-06  0.00000E+00  9.000E+00
#rwgt            1           9  -5.0356151748156601E-002           3     1072686           0
</event>
<event>
      6   9999  3.45752E-01  1.20163E+01 -1.00000E+00  1.79165E-01
      21    -1     0     0   501   511  0.000000000E+00  0.000000000E+00  3.476163550E+01  3.476163550E+01  0.000000000E+00  0.00000E+00  9.000E+00
      21    -1     0     0   502   503  0.000000000E+00  0.000000000E+00 -1.039510572E+03  1.039510572E+03  0.000000000E+00  0.00000E+00  9.000E+00
      25     1     1     2     0     0 -9.249254198E+00  2.346945499E+01 -9.876263542E+02  9.958250279E+02  1.250012262E+02  0.00000E+00  9.000E+00
       5     1     1     2   501     0  3.736278030E+00  4.302190630E+00  2.329239923E+01  2.444518316E+01  4.750000000E+00  0.00000E+00  9.000E+00
      -5     1     1     2     0   503 -3.122265695E+00 -1.941562230E+01 -3.581798622E+01  4.113642630E+01  4.750000000E+00  0.00000E+00  9.000E+00
      21     1     1     2   502   511  8.635241863E+00 -8.356023317E+00 -4.596995130E+00  1.286557002E+01  3.953724850E-07  0.00000E+00  9.000E+00
#rwgt            1           9   4.3203772951814318E-004           3     1073759           0
</event>
<event>
      6   9999  3.45752E-01  1.00172E+01 -1.00000E+00  1.87115E-01
      21    -1     0     0   501   502  0.000000000E+00  0.000000000E+00  7.209787503E+02  7.209787503E+02  0.000000000E+00  0.00000E+00  9.000E+00
      21    -1     0     0   502   512  0.000000000E+00  0.000000000E+00 -1.189030239E+02  1.189030239E+02  0.000000000E+00  0.00000E+00  9.000E+00
      25     1     1     2     0     0 -4.479360360E+00 -1.916709253E+01  1.052602308E+02  1.645996262E+02  1.250035145E+02  0.00000E+00  9.000E+00
       5     1     1     2   501     0  1.545784573E+01  2.271631314E+00  5.729215945E+02  5.731542735E+02  4.750000000E+00  0.00000E+00  9.000E+00
      -5     1     1     2     0   503 -2.697493026E+00  2.253197758E+01 -8.538302462E+01  8.847479797E+01  4.750000000E+00  0.00000E+00  9.000E+00
      21     1     1     2   503   512 -8.280992346E+00 -5.636516366E+00  9.276925721E+00  1.365307664E+01  2.384185791E-07  0.00000E+00  9.000E+00
#rwgt            1           9   2.6682516650174399E-003           3     1076558           0
</event>
<event>
      6   9999 -3.45752E-01  1.15187E+01 -1.00000E+00  1.80950E-01
      -2    -1     0     0     0   503  0.000000000E+00  0.000000000E+00  2.684301153E+01  2.684301153E+01  0.000000000E+00  0.00000E+00  9.000E+00
      21    -1     0     0   501   502  0.000000000E+00  0.000000000E+00 -6.964835735E+02  6.964835735E+02  0.000000000E+00  0.00000E+00  9.000E+00
      25     1     1     2     0     0  1.756343907E+01  5.302515294E+00 -5.896587875E+02  6.030406326E+02  1.249957111E+02  0.00000E+00  9.000E+00
       5     1     1     2   501     0 -7.027977243E-01  3.449360149E+00 -5.243087622E+01  5.276316226E+01  4.750000000E+00  0.00000E+00  9.000E+00
      -5     1     1     2     0   503 -5.859148119E+00 -1.216469499E+01 -4.465994232E+01  4.689757316E+01  4.750000000E+00  0.00000E+00  9.000E+00
      -2     1     1     2     0   502 -1.100149322E+01  3.412819544E+00  1.710904406E+01  2.062521706E+01  3.371747881E-07  0.00000E+00  9.000E+00
#rwgt            1           9  -4.1066873980773067E-003           3     1080688           0
</event>
<event>
      6   9999  3.45752E-01  1.24665E+01 -1.00000E+00  1.77642E-01
      21    -1     0     0   501   502  0.000000000E+00  0.000000000E+00  3.689550035E+02  3.689550035E+02  0.000000000E+00  0.00000E+00  9.000E+00
      21    -1     0     0   511   503  0.000000000E+00  0.000000000E+00 -2.727621287E+03  2.727621287E+03  0.000000000E+00  0.00000E+00  9.000E+00
      25     1     1     2     0     0  5.914345780E+02  1.842206952E+02 -4.840108236E+02  7.960057167E+02  1.250059963E+02  0.00000E+00  9.000E+00
       5     1     1     2   501     0  1.011537305E+01 -2.150757594E+00  1.628713741E+02  1.632684708E+02  4.750000000E+00  0.00000E+00  9.000E+00
      -5     1     1     2     0   503 -5.890997325E+02 -1.814328211E+02 -1.863034841E+03  1.962365344E+03  4.750000000E+00  0.00000E+00  9.000E+00
      21     1     1     2   511   502 -1.245021856E+01 -6.371165492E-01 -1.744919932E+02  1.749367588E+02  1.907348633E-06  0.00000E+00  9.000E+00
#rwgt            1           9   2.3627915831642618E-004           3     1082449           0
</event>
<event>
      6   9999  3.45752E-01  1.04153E+01 -1.00000E+00  1.85351E-01
      21    -1     0     0   501   502  0.000000000E+00  0.000000000E+00  8.098229999E+00  8.098229999E+00  0.000000000E+00  0.00000E+00  9.000E+00
      21    -1     0     0   512   503  0.000000000E+00  0.000000000E+00 -8.568818906E+02  8.568818906E+02  0.000000000E+00  0.00000E+00  9.000E+00
      25     1     1     2     0     0  1.990218203E+01 -1.077769332E+01 -6.665830136E+02  6.785839210E+02  1.250238706E+02  0.00000E+00  9.000E+00
       5     1     1     2   501     0  8.030361716E-01 -3.997199912E-01 -6.385667041E+00  8.008987871E+00  4.750000000E+00  0.00000E+00  9.000E+00
      -5     1     1     2     0   503 -1.300397019E+01  4.165358767E+00 -4.753051419E+01  4.968063741E+01  4.750000000E+00  0.00000E+00  9.000E+00
      21     1     1     2   512   502 -7.701248007E+00  7.012054548E+00 -1.282844657E+02  1.287065743E+02  0.000000000E+00  0.00000E+00  9.000E+00
#rwgt            1           9   2.7757296325909074E-006           3     1089130           0
</event>
<event>
      6   9999 -3.45752E-01  2.89793E+01 -1.00000E+00  1.48817E-01
      21    -1     0     0   501   502  0.000000000E+00  0.000000000E+00  4.204604489E+02  4.204604489E+02  0.000000000E+00  0.00000E+00  9.000E+00
      21    -1     0     0   511   503  0.000000000E+00  0.000000000E+00 -5.460906210E+01  5.460906210E+01  0.000000000E+00  0.00000E+00  9.000E+00
      25     1     1     2     0     0 -3.960865927E+01 -4.178075451E+01  7.417454766E+01  1.563380636E+02  1.250009970E+02  0.00000E+00  9.000E+00
       5     1     1     2   501     0 -3.677821433E+00  1.170312265E+00  1.167851976E+02  1.169454611E+02  4.750000000E+00  0.00000E+00  9.000E+00
      -5     1     1     2     0   503  1.434386504E+01  4.206785598E+01  1.653362598E+02  1.712719834E+02  4.750000000E+00  0.00000E+00  9.000E+00
      21     1     1     2   511   502  2.894261566E+01 -1.457413736E+00  9.555381714E+00  3.051400295E+01  2.665600750E-07  0.00000E+00  9.000E+00
#rwgt            1           9  -1.4589653577243580E-005           3     1091363           0
</event>
<event>
      6   9999  3.45752E-01  1.40791E+01 -1.00000E+00  1.72791E-01
      21    -1     0     0   512   502  0.000000000E+00  0.000000000E+00  2.776313057E+01  2.776313057E+01  0.000000000E+00  0.00000E+00  9.000E+00
      21    -1     0     0   502   503  0.000000000E+00  0.000000000E+00 -1.054541671E+03  1.054541671E+03  0.000000000E+00  0.00000E+00  9.000E+00
      25     1     1     2     0     0 -2.453667715E+01  7.328632092E+01 -4.515077982E+02  4.748232157E+02  1.249994441E+02  0.00000E+00  9.000E+00
       5     1     1     2   501     0  1.526354943E+00 -5.302766313E-03  9.080206947E+00  1.036061995E+01  4.750000000E+00  0.00000E+00  9.000E+00
      -5     1     1     2     0   503  3.238486452E+01 -6.277675689E+01 -5.768309953E+02  5.811594104E+02  4.750000000E+00  0.00000E+00  9.000E+00
      21     1     1     2   512   501 -9.374542310E+00 -1.050426127E+01 -7.519953989E+00  1.596155557E+01  3.153981341E-07  0.00000E+00  9.000E+00
#rwgt            1           9   1.2541044826547922E-003           3     1093131           0
</event>
<event>
      6   9999  3.45752E-01  9.94764E+00 -1.00000E+00  1.87434E-01
      21    -1     0     0   501   502  0.000000000E+00  0.000000000E+00  2.222541808E+01  2.222541808E+01  0.000000000E+00  0.00000E+00  9.000E+00
      21    -1     0     0   511   503  0.000000000E+00  0.000000000E+00 -9.484610195E+02  9.484610195E+02  0.000000000E+00  0.00000E+00  9.000E+00
      25     1     1     2     0     0 -5.060627893E+01  7.906407214E+01 -6.530990068E+02  6.715474097E+02  1.250019512E+02  0.00000E+00  9.000E+00
       5     1     1     2   501     0 -7.427194895E-01  1.086877662E+00  2.205976518E+00  5.400163672E+00  4.750000000E+00  0.00000E+00  9.000E+00
      -5     1     1     2     0   503  4.159768611E+01 -8.211755032E+01 -2.426983939E+02  2.596126585E+02  4.750000000E+00  0.00000E+00  9.000E+00
      21     1     1     2   511   502  9.751312310E+00  1.966600513E+00 -3.264417716E+01  3.412620565E+01  0.000000000E+00  0.00000E+00  9.000E+00
#rwgt            1           9   8.8979088243514820E-005           3     1095527           0
</event>
<event>
      6   9999  3.45752E-01  1.12078E+01 -1.00000E+00  1.82124E-01
      21    -1     0     0   501   502  0.000000000E+00  0.000000000E+00  1.228210749E+01  1.228210749E+01  0.000000000E+00  0.00000E+00  9.000E+00
       1    -1     0     0   502     0  0.000000000E+00  0.000000000E+00 -2.012755703E+03  2.012755703E+03  0.000000000E+00  0.00000E+00  9.000E+00
      25     1     1     2     0     0  2.753158148E+01  1.188873503E+01 -1.250428930E+03  1.257018969E+03  1.249993954E+02  0.00000E+00  9.000E+00
       5     1     1     2   501     0 -2.470504876E-01 -3.574480657E-01  4.018917574E+00  6.237227070E+00  4.750000000E+00  0.00000E+00  9.000E+00
      -5     1     1     2     0   503 -2.499200481E+01 -2.250215813E+01 -7.181731166E+01  7.944328908E+01  4.750000000E+00  0.00000E+00  9.000E+00
       1     1     1     2   503     0 -2.292526175E+00  1.097087117E+01 -6.822462718E+02  6.823383260E+02  1.321449896E-05  0.00000E+00  9.000E+00
#rwgt            1           9   5.4925774829279489E-002           3     1099044           0
</event>
<event>
      6   9999  3.45752E-01  2.11389E+01 -1.00000E+00  1.58396E-01
      21    -1     0     0   511   502  0.000000000E+00  0.000000000E+00  2.354136829E+01  2.354136829E+01  0.000000000E+00  0.00000E+00  9.000E+00
      21    -1     0     0   502   503  0.000000000E+00  0.000000000E+00 -1.026201892E+03  1.026201892E+03  0.000000000E+00  0.00000E+00  9.000E+00
      25     1     1     2     0     0  1.239558642E+01  2.564495203E+01 -7.898719591E+02  8.002087827E+02  1.250002801E+02  0.00000E+00  9.000E+00
       5     1     1     2   501     0  2.387665317E+00  3.830128017E+00  1.408425888E+01  1.553382356E+01  4.750000000E+00  0.00000E+00  9.000E+00
      -5     1     1     2     0   503 -4.804082505E+00 -1.083989220E+01 -1.969525428E+02  1.973662815E+02  4.750000000E+00  0.00000E+00  9.000E+00
      21     1     1     2   511   501 -9.979169227E+00 -1.863518785E+01 -2.992028024E+01  3.663437203E+01  5.840038640E-07  0.00000E+00  9.000E+00
#rwgt            1           9   4.7543036126619399E-003           3     1101857           0
</event>
<event>
      6   9999  3.45752E-01  1.03436E+01 -1.00000E+00  1.85662E-01
      21    -1     0     0   501   502  0.000000000E+00  0.000000000E+00  5.189149210E+03  5.189149210E+03  0.000000000E+00  0.00000E+00  9.000E+00
      21    -1     0     0   512   503  0.000000000E+00  0.000000000E+00 -3.944343736E+00  3.944343736E+00  0.000000000E+00  0.00000E+00  9.000E+00
      25     1     1     2     0     0 -3.569422442E+01  2.857819194E+01  2.530992862E+03  2.534489830E+03  1.249921484E+02  0.00000E+00  9.000E+00
       5     1     1     2   501     0  1.213178234E-01 -1.948191911E+00  1.556885720E+03  1.556894190E+03  4.750000000E+00  0.00000E+00  9.000E+00
      -5     1     1     2     0   503  4.465711951E+01 -3.157635691E+01  1.080930286E+03  1.082323506E+03  4.750000000E+00  0.00000E+00  9.000E+00
      21     1     1     2   512   502 -9.084212904E+00  4.946356878E+00  1.639599803E+01  1.938602903E+01  1.507891493E-06  0.00000E+00  9.000E+00
#rwgt            1           9   6.4651653799350302E-004           3     1103315           0
</event>
<event>
      6   9999  3.45752E-01  6.68714E+00 -1.00000E+00  2.07702E-01
      21    -1     0     0   511   502  0.000000000E+00  0.000000000E+00  4.457083612E+01  4.457083612E+01  0.000000000E+00  0.00000E+00  9.000E+00
      21    -1     0     0   502   503  0.000000000E+00  0.000000000E+00 -8.597980190E+02  8.597980190E+02  0.000000000E+00  0.00000E+00  9.000E+00
      25     1     1     2     0     0  2.349099359E+01  1.939522939E+00 -7.936893577E+02  8.038177073E+02  1.249980861E+02  0.00000E+00  9.000E+00
       5     1     1     2   501     0  2.801887033E+00 -3.209991463E-03  3.873034458E+00  6.738952230E+00  4.750000000E+00  0.00000E+00  9.000E+00
      -5     1     1     2     0   503 -1.962315598E+01 -1.453966287E+00 -5.753887262E+01  6.099562797E+01  4.750000000E+00  0.00000E+00  9.000E+00
      21     1     1     2   511   501 -6.669724643E+00 -4.823466599E-01  3.212801303E+01  3.281656756E+01  1.784161275E-06  0.00000E+00  9.000E+00
#rwgt            1           9   1.0894681368675286E-002           3     1105337           0
</event>
<event>
      6   9999  3.45752E-01  1.62232E+01 -1.00000E+00  1.67473E-01
      21    -1     0     0   512   502  0.000000000E+00  0.000000000E+00  2.856468072E+01  2.856468072E+01  0.000000000E+00  0.00000E+00  9.000E+00
      21    -1     0     0   502   503  0.000000000E+00  0.000000000E+00 -1.084205608E+03  1.084205608E+03  0.000000000E+00  0.00000E+00  9.000E+00
      25     1     1     2     0     0  1.267543074E+00 -1.189878333E+01 -9.961283845E+02  1.004011795E+03  1.249989562E+02  0.00000E+00  9.000E+00
       5     1     1     2   501     0  3.563892117E+00  1.831931173E+00  2.206426316E+01  2.292272906E+01  4.750000000E+00  0.00000E+00  9.000E+00
      -5     1     1     2     0   503  4.756276161E+00 -3.020112565E+00 -4.780214838E+01  4.836683919E+01  4.750000000E+00  0.00000E+00  9.000E+00
      21     1     1     2   512   501 -9.587711352E+00  1.308696472E+01 -3.377465706E+01  3.746892465E+01  0.000000000E+00  0.00000E+00  9.000E+00
#rwgt            1           9   9.1616943835562615E-005           3     1108661           0
</event>
<event>
      6   9999  3.45752E-01  3.96213E+01 -1.00000E+00  1.40426E-01
      21    -1     0     0   501   502  0.000000000E+00  0.000000000E+00  2.325017277E+01  2.325017277E+01  0.000000000E+00  0.00000E+00  9.000E+00
      21    -1     0     0   502   511  0.000000000E+00  0.000000000E+00 -1.867016183E+03  1.867016183E+03  0.000000000E+00  0.00000E+00  9.000E+00
      25     1     1     2     0     0  3.030714906E+00 -1.761128747E+00 -9.076070428E+02  9.161811729E+02  1.250004429E+02  0.00000E+00  9.000E+00
       5     1     1     2   501     0 -1.142356817E+01  1.262586653E+01  1.236078285E+01  2.156992971E+01  4.750000000E+00  0.00000E+00  9.000E+00
      -5     1     1     2     0   503 -7.198848774E+00  2.555979790E+01 -1.177184184E+02  1.207696784E+02  4.750000000E+00  0.00000E+00  9.000E+00
      21     1     1     2   503   511  1.559170204E+01 -3.642453568E+01 -8.308013314E+02  8.317455742E+02  1.078959322E-05  0.00000E+00  9.000E+00
#rwgt            1           9   1.0509619496138220E-003           3     1110940           0
</event>
<event>
      6   9999  3.45752E-01  2.64484E+00 -1.00000E+00  2.92053E-01
      21    -1     0     0   512   502  0.000000000E+00  0.000000000E+00  3.880979807E+02  3.880979807E+02  0.000000000E+00  0.00000E+00  9.000E+00
      21    -1     0     0   502   503  0.000000000E+00  0.000000000E+00 -8.672822890E+02  8.672822890E+02  0.000000000E+00  0.00000E+00  9.000E+00
      25     1     1     2     0     0 -5.560346383E+00 -9.066099425E+00 -7.017287339E+02  7.128550009E+02  1.250036987E+02  0.00000E+00  9.000E+00
       5     1     1     2   501     0 -1.503389640E+00  4.088218581E+00  8.494847694E+00  1.066295686E+01  4.750000000E+00  0.00000E+00  9.000E+00
      -5     1     1     2     0   503  7.831143495E+00  7.508942980E+00 -1.586809829E+02  1.591223676E+02  4.750000000E+00  0.00000E+00  9.000E+00
      21     1     1     2   512   501 -7.674074721E-01 -2.531062137E+00  3.727305608E+02  3.727399444E+02  0.000000000E+00  0.00000E+00  9.000E+00
#rwgt            1           9   7.4598917754333985E-002           3     1112264           0
</event>
<event>
      6   9999  3.45752E-01  7.64206E+01 -1.00000E+00  1.25616E-01
      -1    -1     0     0     0   502  0.000000000E+00  0.000000000E+00  5.720172284E+02  5.720172284E+02  0.000000000E+00  0.00000E+00  9.000E+00
       1    -1     0     0   511     0  0.000000000E+00  0.000000000E+00 -3.810193679E+02  3.810193679E+02  0.000000000E+00  0.00000E+00  9.000E+00
      25     1     1     2     0     0  2.229012472E+02  1.864528717E+02  3.482476374E+02  4.704819488E+02  1.250088311E+02  0.00000E+00  9.000E+00
       5     1     1     2   501     0 -1.800627824E+02 -9.380184345E+01 -5.366462258E+01  2.100567677E+02  4.750000000E+00  0.00000E+00  9.000E+00
      -5     1     1     2     0   502 -9.233775771E+00 -1.612865298E+02 -2.618484830E+01  1.637278721E+02  4.750000000E+00  0.00000E+00  9.000E+00
      21     1     1     2   511   501 -3.360468895E+01  6.863550161E+01 -7.740030603E+01  1.087700077E+02  0.000000000E+00  0.00000E+00  9.000E+00
#rwgt            1           1   1.6871665112030785E-002           3     1119105           0
</event>
<event>
      6   9999  3.45752E-01  2.82400E+01 -1.00000E+00  1.49557E-01
      21    -1     0     0   501   502  0.000000000E+00  0.000000000E+00  2.792367685E+03  2.792367685E+03  0.000000000E+00  0.00000E+00  9.000E+00
      21    -1     0     0   512   503  0.000000000E+00  0.000000000E+00 -3.699231934E+01  3.699231934E+01  0.000000000E+00  0.00000E+00  9.000E+00
      25     1     1     2     0     0  4.570542046E+00  2.083049687E+01  1.914010431E+03  1.918206378E+03  1.249999185E+02  0.00000E+00  9.000E+00
       5     1     1     2   501     0  7.300104685E-01  2.389613683E+00  5.771840275E+02  5.772089806E+02  4.750000000E+00  0.00000E+00  9.000E+00
      -5     1     1     2     0   503 -3.572772262E+00  4.966958794E+00  2.932875593E+02  2.933898266E+02  4.750000000E+00  0.00000E+00  9.000E+00
      21     1     1     2   512   502 -1.727780252E+00 -2.818706935E+01 -2.910665250E+01  4.055481873E+01  1.168007728E-06  0.00000E+00  9.000E+00
#rwgt            1           9   4.4553772383305002E-003           3     1119711           0
</event>
<event>
      6   9999  3.45752E-01  2.20994E+00 -1.00000E+00  3.16970E-01
       3    -1     0     0   501     0  0.000000000E+00  0.000000000E+00  1.204126003E+01  1.204126003E+01  0.000000000E+00  0.00000E+00  9.000E+00
      21    -1     0     0   502   503  0.000000000E+00  0.000000000E+00 -7.589271281E+02  7.589271281E+02  0.000000000E+00  0.00000E+00  9.000E+00
      25     1     1     2     0     0 -8.212353796E-01  3.779831434E+00 -6.848456613E+02  6.961710042E+02  1.250021030E+02  0.00000E+00  9.000E+00
       5     1     1     2   501     0  5.555677588E-02 -1.101042213E-01 -1.135756802E+01  1.231146055E+01  4.750000000E+00  0.00000E+00  9.000E+00
      -5     1     1     2     0   503 -1.119593434E+00 -2.516652356E+00 -5.623889434E+01  5.650630731E+01  4.750000000E+00  0.00000E+00  9.000E+00
       3     1     1     2   502     0  1.885272037E+00 -1.153074857E+00  5.556255583E+00  5.979616073E+00  4.842304232E-07  0.00000E+00  9.000E+00
#rwgt            1           9   1.2255599691994000E-003           3     1121143           0
</event>
<event>
      6   9999  3.45752E-01  2.47169E+01 -1.00000E+00  1.53494E-01
      21    -1     0     0   501   502  0.000000000E+00  0.000000000E+00  1.019656552E+03  1.019656552E+03  0.000000000E+00  0.00000E+00  9.000E+00
      21    -1     0     0   502   511  0.000000000E+00  0.000000000E+00 -9.346812176E+01  9.346812176E+01  0.000000000E+00  0.00000E+00  9.000E+00
      25     1     1     2     0     0  2.247524124E+00 -1.698928111E+01  6.733061435E+02  6.850243149E+02  1.249938483E+02  0.00000E+00  9.000E+00
       5     1     1     2   501     0  4.184310608E-01 -1.758936666E+00  1.961710088E+02  1.962368369E+02  4.750000000E+00  0.00000E+00  9.000E+00
      -5     1     1     2     0   503  7.469891874E+00 -3.794812944E+00  1.423774801E+02  1.427028704E+02  4.750000000E+00  0.00000E+00  9.000E+00
      21     1     1     2   503   511 -1.013584706E+01  2.254303072E+01 -8.566620206E+01  8.916065166E+01  2.861022949E-06  0.00000E+00  9.000E+00
#rwgt            1           9   8.5584197544203285E-005           3     1127277           0
</event>
<event>
      6   9999  3.45752E-01  5.27127E+00 -1.00000E+00  2.22203E-01
      21    -1     0     0   501   502  0.000000000E+00  0.000000000E+00  1.550237495E+01  1.550237495E+01  0.000000000E+00  0.00000E+00  9.000E+00
      21    -1     0     0   502   512  0.000000000E+00  0.000000000E+00 -9.590408253E+02  9.590408253E+02  0.000000000E+00  0.00000E+00  9.000E+00
      25     1     1     2     0     0 -3.406153007E+01  2.106826643E+01 -7.543475482E+02  7.656822793E+02  1.250002786E+02  0.00000E+00  9.000E+00
       5     1     1     2   501     0 -2.856690795E+00  2.182991021E+00  5.896635607E+00  8.382060820E+00  4.750000000E+00  0.00000E+00  9.000E+00
      -5     1     1     2     0   503  3.227790212E+01 -2.075050343E+01 -1.433334706E+02  1.484570398E+02  4.750000000E+00  0.00000E+00  9.000E+00
      21     1     1     2   503   512  4.640318738E+00 -2.500754024E+00 -5.175406717E+01  5.202182040E+01  6.743495762E-07  0.00000E+00  9.000E+00
#rwgt            1           9   8.3496325080939634E-004           3     1128113           0
</event>
<event>
      6   9999  3.45752E-01  4.17730E+00 -1.00000E+00  2.44015E-01
      21    -1     0     0   501   511  0.000000000E+00  0.000000000E+00  2.072075959E+02  2.072075959E+02  0.000000000E+00  0.00000E+00  9.000E+00
      21    -1     0     0   502   503  0.000000000E+00  0.000000000E+00 -7.239493699E+02  7.239493699E+02  0.000000000E+00  0.00000E+00  9.000E+00
      25     1     1     2     0     0  4.795880458E+00  7.202226843E-01 -7.007817327E+02  7.118592931E+02  1.250003883E+02  0.00000E+00  9.000E+00
       5     1     1     2   501     0 -3.098697527E-01  2.165311820E-01 -8.405524970E+00  9.662207566E+00  4.750000000E+00  0.00000E+00  9.000E+00
      -5     1     1     2     0   503 -4.555801077E+00  3.239959274E+00 -7.003821637E+00  1.014241969E+01  4.750000000E+00  0.00000E+00  9.000E+00
      21     1     1     2   502   511  6.979037172E-02 -4.176713140E+00  1.994493053E+02  1.994930455E+02  4.672030912E-06  0.00000E+00  9.000E+00
#rwgt            1           9   1.0476913917452424E-004           3     1132721           0
</event>
<event>
      6   9999  3.45752E-01  8.68375E+00 -1.00000E+00  1.93890E-01
      21    -1     0     0   502   503  0.000000000E+00  0.000000000E+00  2.309760510E+00  2.309760510E+00  0.000000000E+00  0.00000E+00  9.000E+00
       2    -1     0     0   501     0  0.000000000E+00  0.000000000E+00 -3.006269420E+03  3.006269420E+03  0.000000000E+00  0.00000E+00  9.000E+00
      25     1     1     2     0     0 -5.731430072E+00  1.531943682E+00 -2.167376006E+03  2.170985652E+03  1.249990152E+02  0.00000E+00  9.000E+00
       5     1     1     2   501     0 -5.689877767E-01  5.235479610E-02 -1.774149128E+01  1.837524152E+01  4.750000000E+00  0.00000E+00  9.000E+00
      -5     1     1     2     0   503  2.741257639E-01  4.668003787E+00 -6.799652831E+01  6.832243970E+01  4.750000000E+00  0.00000E+00  9.000E+00
       2     1     1     2   502     0  6.026292085E+00 -6.252302265E+00 -7.508456343E+02  7.508958476E+02  0.000000000E+00  0.00000E+00  9.000E+00
#rwgt            1           9  0.14454874197191006                3     1136751           0
</event>
<event>
      6   9999  3.45752E-01  9.55625E+01 -1.00000E+00  1.21279E-01
      21    -1     0     0   502   503  0.000000000E+00  0.000000000E+00  4.019951135E+01  4.019951135E+01  0.000000000E+00  0.00000E+00  9.000E+00
      21    -1     0     0   511   502  0.000000000E+00  0.000000000E+00 -1.474979422E+03  1.474979422E+03  0.000000000E+00  0.00000E+00  9.000E+00
      25     1     1     2     0     0  8.296665524E+01 -4.416139406E+00 -2.242845803E+02  2.698747433E+02  1.250033438E+02  0.00000E+00  9.000E+00
       5     1     1     2   501     0 -2.993082072E+01  1.876918998E+01 -3.819847540E+02  3.836444335E+02  4.750000000E+00  0.00000E+00  9.000E+00
      -5     1     1     2     0   503 -1.037052321E+02 -9.537655653E+01 -5.094170952E+02  5.285639053E+02  4.750000000E+00  0.00000E+00  9.000E+00
      21     1     1     2   511   501  5.066939753E+01  8.102350595E+01 -3.190934812E+02  3.330958512E+02  0.000000000E+00  0.00000E+00  9.000E+00
#rwgt            1           9   1.6593480129522566E-004           3     1139042           0
</event>
<event>
      6   9999  3.45752E-01  1.41244E+01 -1.00000E+00  1.72667E-01
      21    -1     0     0   501   502  0.000000000E+00  0.000000000E+00  1.460300352E+01  1.460300352E+01  0.000000000E+00  0.00000E+00  9.000E+00
      21    -1     0     0   512   503  0.000000000E+00  0.000000000E+00 -1.041980433E+03  1.041980433E+03  0.000000000E+00  0.00000E+00  9.000E+00
      25     1     1     2     0     0  2.927705788E+01 -2.712241984E+01 -5.490433854E+02  5.645055822E+02  1.250005661E+02  0.00000E+00  9.000E+00
       5     1     1     2   501     0 -5.174071284E-01 -1.865589385E+00  4.883527987E+00  7.082335737E+00  4.750000000E+00  0.00000E+00  9.000E+00
      -5     1     1     2     0   503 -2.030763843E+01  1.767160746E+01 -3.272175477E+02  3.283573845E+02  4.750000000E+00  0.00000E+00  9.000E+00
      21     1     1     2   512   502 -8.452012323E+00  1.131640177E+01 -1.560000241E+02  1.566381339E+02  2.697398305E-06  0.00000E+00  9.000E+00
#rwgt            1           9   1.0731674304576251E-004           3     1139775           0
</event>
<event>
      6   9999  3.45752E-01  7.04722E+01 -1.00000E+00  1.27268E-01
      21    -1     0     0   501   511  0.000000000E+00  0.000000000E+00  1.404666663E+01  1.404666663E+01  0.000000000E+00  0.00000E+00  9.000E+00
      21    -1     0     0   502   503  0.000000000E+00  0.000000000E+00 -2.566051255E+03  2.566051255E+03  0.000000000E+00  0.00000E+00  9.000E+00
      25     1     1     2     0     0  1.443253493E+01 -7.125226152E+01 -1.360282026E+03  1.367945999E+03  1.249955321E+02  0.00000E+00  9.000E+00
       5     1     1     2   501     0 -2.622213848E+01 -4.719904539E+00 -4.458881785E+02  4.467087511E+02  4.750000000E+00  0.00000E+00  9.000E+00
      -5     1     1     2     0   503 -2.437116247E+01  1.548474406E+01 -6.240720298E+02  6.247577064E+02  4.750000000E+00  0.00000E+00  9.000E+00
      21     1     1     2   502   511  3.616076601E+01  6.048742200E+01 -1.217623535E+02  1.406854646E+02  4.046097457E-06  0.00000E+00  9.000E+00
#rwgt            1           9   8.2141056816472033E-003           3     1141956           0
</event>
<event>
      6   9999  3.45752E-01  7.83960E+00 -1.00000E+00  1.99062E-01
      21    -1     0     0   512   502  0.000000000E+00  0.000000000E+00  7.293922137E+01  7.293922137E+01  0.000000000E+00  0.00000E+00  9.000E+00
      21    -1     0     0   502   503  0.000000000E+00  0.000000000E+00 -1.459493426E+03  1.459493426E+03  0.000000000E+00  0.00000E+00  9.000E+00
      25     1     1     2     0     0 -7.816996826E+00  1.057740622E+02 -3.976361684E+02  4.301041900E+02  1.250033367E+02  0.00000E+00  9.000E+00
       5     1     1     2   501     0  9.787232519E+00  3.363880287E+00  4.664709165E+01  4.801686444E+01  4.750000000E+00  0.00000E+00  9.000E+00
      -5     1     1     2     0   503  2.056837626E+00 -1.024117199E+02 -1.040174918E+03  1.045217113E+03  4.750000000E+00  0.00000E+00  9.000E+00
      21     1     1     2   512   501 -4.027073320E+00 -6.726222539E+00  4.609790450E+00  9.094479489E+00  2.665600750E-07  0.00000E+00  9.000E+00
#rwgt            1           9   6.5115526700221249E-002           3     1142557           0
</event>
<event>
      6   9999  3.45752E-01  3.98622E+00 -1.00000E+00  2.48161E-01
      21    -1     0     0   501   502  0.000000000E+00  0.000000000E+00  1.058062355E+01  1.058062355E+01  0.000000000E+00  0.00000E+00  9.000E+00
      21    -1     0     0   502   511  0.000000000E+00  0.000000000E+00 -1.524009829E+03  1.524009829E+03  0.000000000E+00  0.00000E+00  9.000E+00
      25     1     1     2     0     0  2.279820363E+00  7.685214426E-01 -7.523450838E+02  7.626636272E+02  1.250075793E+02  0.00000E+00  9.000E+00
       5     1     1     2   501     0  1.010076985E+00  9.339434135E-02  3.981190301E+00  6.280235205E+00  4.750000000E+00  0.00000E+00  9.000E+00
      -5     1     1     2     0   503  6.817163798E-01 -5.210059140E-01 -2.013018093E+01  2.070079392E+01  4.750000000E+00  0.00000E+00  9.000E+00
      21     1     1     2   503   511 -3.971613727E+00 -3.409098700E-01 -7.449351315E+02  7.449457967E+02  0.000000000E+00  0.00000E+00  9.000E+00
#rwgt            1           9   1.3051512966340408E-004           3     1147924           0
</event>
<event>
      6   9999  3.45752E-01  5.04558E+00 -1.00000E+00  2.25105E-01
      21    -1     0     0   502   512  0.000000000E+00  0.000000000E+00  1.073898869E+01  1.073898869E+01  0.000000000E+00  0.00000E+00  9.000E+00
      21    -1     0     0   501   502  0.000000000E+00  0.000000000E+00 -7.064711214E+02  7.064711214E+02  0.000000000E+00  0.00000E+00  9.000E+00
      25     1     1     2     0     0  2.546653247E-01  1.163127855E+01 -6.762831672E+02  6.878369031E+02  1.250013262E+02  0.00000E+00  9.000E+00
       5     1     1     2   501     0  4.602477567E-01  9.915693699E-02 -4.479261469E+00  6.545834049E+00  4.750000000E+00  0.00000E+00  9.000E+00
      -5     1     1     2     0   503  1.542583089E-01 -6.760286937E+00 -1.568757578E+01  1.773098443E+01  4.750000000E+00  0.00000E+00  9.000E+00
      21     1     1     2   503   512 -8.691713903E-01 -4.970148555E+00  7.178717697E-01  5.096388470E+00  2.809570377E-07  0.00000E+00  9.000E+00
#rwgt            1           9   8.8198965028776202E-004           3     1152752           0
</event>
<event>
      6   9999  3.45752E-01  1.15401E+01 -1.00000E+00  1.80870E-01
      21    -1     0     0   501   502  0.000000000E+00  0.000000000E+00  1.276563634E+02  1.276563634E+02  0.000000000E+00  0.00000E+00  9.000E+00
      21    -1     0     0   511   503  0.000000000E+00  0.000000000E+00 -2.670699016E+02  2.670699016E+02  0.000000000E+00  0.00000E+00  9.000E+00
      25     1     1     2     0     0 -5.994638443E+01 -1.247465552E+02 -1.276454634E+02  2.259999525E+02  1.250093684E+02  0.00000E+00  9.000E+00
       5     1     1     2   501     0  1.519123791E+00 -1.170545314E+00  1.942869563E+01  2.009265108E+01  4.750000000E+00  0.00000E+00  9.000E+00
      -5     1     1     2     0   503  6.039296776E+01  1.145456228E+02 -1.754979712E+01  1.307614934E+02  4.750000000E+00  0.00000E+00  9.000E+00
      21     1     1     2   511   502 -1.965707114E+00  1.137147770E+01 -1.364697335E+01  1.787216805E+01  1.685873940E-07  0.00000E+00  9.000E+00
#rwgt            1           9   1.7420127492347155E-003           3     1156628           0
</event>
<event>
      6   9999  3.45752E-01  1.90402E+00 -1.00000E+00  3.41374E-01
      21    -1     0     0   501   512  0.000000000E+00  0.000000000E+00  3.467204376E+01  3.467204376E+01  0.000000000E+00  0.00000E+00  9.000E+00
      21    -1     0     0   502   503  0.000000000E+00  0.000000000E+00 -1.134363222E+03  1.134363222E+03  0.000000000E+00  0.00000E+00  9.000E+00
      25     1     1     2     0     0 -1.377144970E+01  5.935877553E+01 -1.959672475E+02  2.402938374E+02  1.249993966E+02  0.00000E+00  9.000E+00
       5     1     1     2   501     0  1.326227718E+00 -1.852400680E+00  6.822055109E+00  8.619350564E+00  4.750000000E+00  0.00000E+00  9.000E+00
      -5     1     1     2     0   503  1.297827336E+01 -5.567849166E+01 -9.142018735E+02  9.160000862E+02  4.750000000E+00  0.00000E+00  9.000E+00
      21     1     1     2   502   512 -5.330513713E-01 -1.827883183E+00  3.655887589E+00  4.121991601E+00  1.788139343E-07  0.00000E+00  9.000E+00
#rwgt            1           9   4.7139729334483951E-005           3     1159588           0
</event>
<event>
      6   9999  3.45752E-01  6.59208E+00 -1.00000E+00  2.08519E-01
       2    -1     0     0   501     0  0.000000000E+00  0.000000000E+00  6.946906574E+02  6.946906574E+02  0.000000000E+00  0.00000E+00  9.000E+00
      21    -1     0     0   502   503  0.000000000E+00  0.000000000E+00 -8.855935971E+02  8.855935971E+02  0.000000000E+00  0.00000E+00  9.000E+00
      25     1     1     2     0     0  9.826687495E+00 -7.500595161E+00 -8.640215010E+02  8.731036811E+02  1.249962439E+02  0.00000E+00  9.000E+00
       5     1     1     2   501     0  4.423950392E+00 -2.235047380E+00  9.805653620E+00  1.196996728E+01  4.750000000E+00  0.00000E+00  9.000E+00
      -5     1     1     2     0   503 -1.243234500E+01  3.399288413E+00 -1.297220993E+01  1.889336111E+01  4.750000000E+00  0.00000E+00  9.000E+00
       2     1     1     2   502     0 -1.818292891E+00  6.336354129E+00  6.762851176E+02  6.763172450E+02  1.321449896E-05  0.00000E+00  9.000E+00
#rwgt            1           9   2.5010554574444560E-004           3     1170543           0
</event>
<event>
      6   9999  3.45752E-01  5.21157E+00 -1.00000E+00  2.22951E-01
       2    -1     0     0   501     0  0.000000000E+00  0.000000000E+00  1.262994968E+03  1.262994968E+03  0.000000000E+00  0.00000E+00  9.000E+00
      21    -1     0     0   502   503  0.000000000E+00  0.000000000E+00 -1.081062488E+03  1.081062488E+03  0.000000000E+00  0.00000E+00  9.000E+00
      25     1     1     2     0     0 -3.076400846E+00 -3.976309508E+01 -2.340780181E+02  2.683297498E+02  1.249710691E+02  0.00000E+00  9.000E+00
       5     1     1     2   501     0  1.937082437E+00  2.127343894E+00  7.862335112E+00  9.625834708E+00  4.750000000E+00  0.00000E+00  9.000E+00
      -5     1     1     2     0   503 -1.690731729E+00  4.201197143E+01 -8.284314089E+02  8.295113176E+02  4.750000000E+00  0.00000E+00  9.000E+00
       2     1     1     2   502     0  2.830050138E+00 -4.376220246E+00  1.236579572E+03  1.236590554E+03  2.157918644E-05  0.00000E+00  9.000E+00
#rwgt            1           9   2.8096445641959524E-004           3     1174073           0
</event>
<event>
      6   9999  3.45752E-01  3.51919E+01 -1.00000E+00  1.43489E-01
      21    -1     0     0   501   502  0.000000000E+00  0.000000000E+00  9.793790705E+01  9.793790705E+01  0.000000000E+00  0.00000E+00  9.000E+00
      21    -1     0     0   502   511  0.000000000E+00  0.000000000E+00 -6.889880545E+02  6.889880545E+02  0.000000000E+00  0.00000E+00  9.000E+00
      25     1     1     2     0     0  1.999845586E+01 -3.707695495E+00 -3.367300928E+02  3.597589421E+02  1.250026230E+02  0.00000E+00  9.000E+00
       5     1     1     2   501     0 -1.817027299E+01  5.876458608E-01  8.033701756E+01  8.250516977E+01  4.750000000E+00  0.00000E+00  9.000E+00
      -5     1     1     2     0   503 -3.080780313E+01 -1.684616407E+01 -2.566453843E+02  2.590797749E+02  4.750000000E+00  0.00000E+00  9.000E+00
      21     1     1     2   503   511  2.897962026E+01  1.996621371E+01 -7.801168784E+01  8.558207476E+01  9.536743164E-07  0.00000E+00  9.000E+00
#rwgt            1           9   2.9902871044711792E-004           3     1178894           0
</event>
<event>
      6   9999  3.45752E-01  2.98802E+00 -1.00000E+00  2.77367E-01
      21    -1     0     0   501   502  0.000000000E+00  0.000000000E+00  2.071442660E+03  2.071442660E+03  0.000000000E+00  0.00000E+00  9.000E+00
      21    -1     0     0   512   503  0.000000000E+00  0.000000000E+00 -6.435657473E+02  6.435657473E+02  0.000000000E+00  0.00000E+00  9.000E+00
      25     1     1     2     0     0  3.931510033E+00 -2.742769589E+00  1.024134559E+03  1.031745636E+03  1.249979273E+02  0.00000E+00  9.000E+00
       5     1     1     2   501     0 -7.157201193E-01  1.581145538E+00  9.126878723E+02  9.127018829E+02  4.750000000E+00  0.00000E+00  9.000E+00
      -5     1     1     2     0   503 -4.343588814E+00 -1.605381083E+00  1.307200877E+02  1.308883029E+02  4.750000000E+00  0.00000E+00  9.000E+00
      21     1     1     2   512   502  1.127798900E+00  2.767005134E+00 -6.396656068E+02  6.396725856E+02  1.705984480E-05  0.00000E+00  9.000E+00
#rwgt            1           9   3.1553429157349729E-003           3     1180509           0
</event>
<event>
      6   9999  3.45752E-01  4.72410E+00 -1.00000E+00  2.33785E-01
      21    -1     0     0   511   502  0.000000000E+00  0.000000000E+00  1.412903427E+02  1.412903427E+02  0.000000000E+00  0.00000E+00  9.000E+00
      21    -1     0     0   502   503  0.000000000E+00  0.000000000E+00 -9.929586548E+02  9.929586548E+02  0.000000000E+00  0.00000E+00  9.000E+00
      25     1     1     2     0     0  2.984615070E+00 -2.257785528E+01 -7.104926976E+02  7.217639706E+02  1.249987538E+02  0.00000E+00  9.000E+00
       5     1     1     2   501     0 -2.672130928E+00  3.200321274E+00  1.360722538E+01  1.500338037E+01  4.750000000E+00  0.00000E+00  9.000E+00
      -5     1     1     2     0   503  4.371449473E+00  1.999228710E+01 -2.756864530E+02  2.764857754E+02  4.750000000E+00  0.00000E+00  9.000E+00
      21     1     1     2   511   501 -4.683933615E+00 -6.147530923E-01  1.209036131E+02  1.209958711E+02  3.814697266E-06  0.00000E+00  9.000E+00
#rwgt            1           9   1.4298212602462464E-003           3     1186635           0
</event>
<event>
      6   9999  3.45752E-01  1.81080E+01 -1.00000E+00  1.63576E-01
      21    -1     0     0   501   502  0.000000000E+00  0.000000000E+00  2.127183950E+01  2.127183950E+01  0.000000000E+00  0.00000E+00  9.000E+00
       2    -1     0     0   502     0  0.000000000E+00  0.000000000E+00 -1.885337224E+03  1.885337224E+03  0.000000000E+00  0.00000E+00  9.000E+00
      25     1     1     2     0     0  1.521899515E+01  8.112236756E+00 -9.579438840E+02  9.662188786E+02  1.250000409E+02  0.00000E+00  9.000E+00
       5     1     1     2   501     0  1.651110214E+00  3.576504603E-01  1.604551741E+01  1.681889437E+01  4.750000000E+00  0.00000E+00  9.000E+00
      -5     1     1     2     0   503 -6.414913527E+00  6.314869199E+00 -4.191474124E+01  4.313278013E+01  4.750000000E+00  0.00000E+00  9.000E+00
       2     1     1     2   503     0 -1.045519184E+01 -1.478475642E+01 -8.802522767E+02  8.804385104E+02  1.078959322E-05  0.00000E+00  9.000E+00
#rwgt            1           9   2.1661702388347779E-005           3     1192134           0
</event>
<event>
      6   9999  3.45752E-01  1.94904E+01 -1.00000E+00  1.61071E-01
      21    -1     0     0   502   503  0.000000000E+00  0.000000000E+00  3.584916260E+01  3.584916260E+01  0.000000000E+00  0.00000E+00  9.000E+00
      21    -1     0     0   511   502  0.000000000E+00  0.000000000E+00 -5.290667957E+02  5.290667957E+02  0.000000000E+00  0.00000E+00  9.000E+00
      25     1     1     2     0     0 -5.761227951E+01  2.970198009E+01 -2.221050901E+02  2.629786574E+02  1.250028833E+02  0.00000E+00  9.000E+00
       5     1     1     2   501     0 -3.007578647E+01 -2.807050927E+01 -1.063789173E+02  1.141557838E+02  4.750000000E+00  0.00000E+00  9.000E+00
      -5     1     1     2     0   503  6.832922346E+01  6.294145209E-01 -1.089727604E+02  1.287124856E+02  4.750000000E+00  0.00000E+00  9.000E+00
      21     1     1     2   511   501  1.935884251E+01 -2.260885342E+00 -5.576086529E+01  5.906903151E+01  6.743495762E-07  0.00000E+00  9.000E+00
#rwgt            1           9  0.54906327568535984                3     1194038           0
</event>
<event>
      6   9999  3.45752E-01  1.18798E+01 -1.00000E+00  1.79643E-01
      21    -1     0     0   501   502  0.000000000E+00  0.000000000E+00  8.448777673E+00  8.448777673E+00  0.000000000E+00  0.00000E+00  9.000E+00
      21    -1     0     0   502   512  0.000000000E+00  0.000000000E+00 -8.851547990E+02  8.851547990E+02  0.000000000E+00  0.00000E+00  9.000E+00
      25     1     1     2     0     0  1.726339172E+01 -2.025050461E+00 -5.831668132E+02  5.966714252E+02  1.250245260E+02  0.00000E+00  9.000E+00
       5     1     1     2   501     0  4.822092688E-01  1.295230819E-01 -2.860353637E+00  5.567173873E+00  4.750000000E+00  0.00000E+00  9.000E+00
      -5     1     1     2     0   503 -5.882181473E+00  1.272033186E+00 -1.449946896E+02  1.451972474E+02  4.750000000E+00  0.00000E+00  9.000E+00
      21     1     1     2   503   512 -1.186341952E+01  6.234941933E-01 -1.456841648E+02  1.461677301E+02  1.907348633E-06  0.00000E+00  9.000E+00
#rwgt            1           9   7.4788605785034911E-003           3     1195769           0
</event>
<event>
      6   9999  3.45752E-01  1.13690E+01 -1.00000E+00  1.81509E-01
      21    -1     0     0   511   502  0.000000000E+00  0.000000000E+00  9.584016166E+01  9.584016166E+01  0.000000000E+00  0.00000E+00  9.000E+00
      21    -1     0     0   502   503  0.000000000E+00  0.000000000E+00 -2.609895820E+02  2.609895820E+02  0.000000000E+00  0.00000E+00  9.000E+00
      25     1     1     2     0     0  2.375592821E+01  4.141966960E+00 -1.268581095E+02  1.797246180E+02  1.250058333E+02  0.00000E+00  9.000E+00
       5     1     1     2   501     0  1.820953929E+00 -1.224200076E+00  9.664360058E+00  1.098985416E+01  4.750000000E+00  0.00000E+00  9.000E+00
      -5     1     1     2     0   503 -1.955944145E+01 -1.256377806E+01 -1.051541485E+02  1.077978558E+02  4.750000000E+00  0.00000E+00  9.000E+00
      21     1     1     2   511   501 -6.017440692E+00  9.646011171E+00  5.719847764E+01  5.831741566E+01  6.743495762E-07  0.00000E+00  9.000E+00
#rwgt            1           9   32.101924235902302                3     1198498           0
</event>
<event>
      6   9999  3.45752E-01  1.15046E+01 -1.00000E+00  1.81002E-01
      21    -1     0     0   501   512  0.000000000E+00  0.000000000E+00  6.067493265E+01  6.067493265E+01  0.000000000E+00  0.00000E+00  9.000E+00
      21    -1     0     0   502   503  0.000000000E+00  0.000000000E+00 -1.986953685E+02  1.986953685E+02  0.000000000E+00  0.00000E+00  9.000E+00
      25     1     1     2     0     0  1.056751835E+01 -1.852462895E+01 -1.270652098E+02  1.795182403E+02  1.250055868E+02  0.00000E+00  9.000E+00
       5     1     1     2   501     0  2.262775570E+00  7.729527020E-01  9.454060292E+00  1.084709017E+01  4.750000000E+00  0.00000E+00  9.000E+00
      -5     1     1     2     0   503 -1.810390380E+00  2.105574718E+01 -4.045706228E+01  4.589072227E+01  4.750000000E+00  0.00000E+00  9.000E+00
      21     1     1     2   502   512 -1.101990354E+01 -3.304070924E+00  2.004777596E+01  2.311424842E+01  2.384185791E-07  0.00000E+00  9.000E+00
#rwgt            1           9   1.5077740713552979E-003           3     1200746           0
</event>
<event>
      6   9999  3.45752E-01  5.17976E+01 -1.00000E+00  1.33972E-01
      21    -1     0     0   502   511  0.000000000E+00  0.000000000E+00  8.049947141E+01  8.049947141E+01  0.000000000E+00  0.00000E+00  9.000E+00
      21    -1     0     0   501   502  0.000000000E+00  0.000000000E+00 -1.632838483E+03  1.632838483E+03  0.000000000E+00  0.00000E+00  9.000E+00
      25     1     1     2     0     0  7.977150816E-01  2.348175113E+01 -9.430038767E+01  1.583352076E+02  1.250017835E+02  0.00000E+00  9.000E+00
       5     1     1     2   501     0 -6.342538780E+01 -9.288689630E+01 -1.377122018E+03  1.381715734E+03  4.750000000E+00  0.00000E+00  9.000E+00
      -5     1     1     2     0   503  2.334638053E+01  3.564164381E+01  2.901270659E+01  5.176562471E+01  4.750000000E+00  0.00000E+00  9.000E+00
      21     1     1     2   503   511  3.928129219E+01  3.376350136E+01 -1.099293125E+02  1.215213877E+02  0.000000000E+00  0.00000E+00  9.000E+00
#rwgt            1           9   1.2041510668208841E-004           3     1202868           0
</event>
<event>
      6   9999 -3.45752E-01  2.65424E+00 -1.00000E+00  2.91603E-01
      21    -1     0     0   501   502  0.000000000E+00  0.000000000E+00  2.912654599E+01  2.912654599E+01  0.000000000E+00  0.00000E+00  9.000E+00
      21    -1     0     0   512   503  0.000000000E+00  0.000000000E+00 -1.225334844E+03  1.225334844E+03  0.000000000E+00  0.00000E+00  9.000E+00
      25     1     1     2     0     0  9.040694536E+00 -2.637517554E+00 -1.094649229E+03  1.101803289E+03  1.249994568E+02  0.00000E+00  9.000E+00
       5     1     1     2   501     0 -6.844531372E+00  2.973375679E+00  2.437583105E+01  2.593129792E+01  4.750000000E+00  0.00000E+00  9.000E+00
      -5     1     1     2     0   503  4.067379281E-01  1.836317638E-01 -1.458929808E+01  1.534956920E+01  4.750000000E+00  0.00000E+00  9.000E+00
      21     1     1     2   512   502 -2.602901092E+00 -5.194898888E-01 -1.113456022E+02  1.113772333E+02  1.907348633E-06  0.00000E+00  9.000E+00
#rwgt            1           9  -1.7241704842377631E-004           3     1204290           0
</event>
<event>
      6   9999  3.45752E-01  1.17451E+01 -1.00000E+00  1.80124E-01
      21    -1     0     0   501   502  0.000000000E+00  0.000000000E+00  5.317288717E+01  5.317288717E+01  0.000000000E+00  0.00000E+00  9.000E+00
      21    -1     0     0   511   503  0.000000000E+00  0.000000000E+00 -2.753446376E+03  2.753446376E+03  0.000000000E+00  0.00000E+00  9.000E+00
      25     1     1     2     0     0  2.486663312E+02  7.648881331E+01 -5.994346406E+02  6.653058565E+02  1.249980461E+02  0.00000E+00  9.000E+00
       5     1     1     2   501     0 -2.468735663E+02 -7.934655904E+01 -8.204760570E+02  8.604916948E+02  4.750000000E+00  0.00000E+00  9.000E+00
      -5     1     1     2     0   503  8.751551443E+00 -2.315779601E+00 -1.307972540E+02  1.311961761E+02  4.750000000E+00  0.00000E+00  9.000E+00
      21     1     1     2   511   502 -1.054431625E+01  5.173525331E+00 -1.149565537E+03  1.149625536E+03  0.000000000E+00  0.00000E+00  9.000E+00
#rwgt            1           9   2.3346942774163503E-002           3     1211834           0
</event>
<event>
      6   9999  3.45752E-01  5.32039E+00 -1.00000E+00  2.21598E-01
      21    -1     0     0   512   502  0.000000000E+00  0.000000000E+00  4.919642861E+01  4.919642861E+01  0.000000000E+00  0.00000E+00  9.000E+00
      21    -1     0     0   502   503  0.000000000E+00  0.000000000E+00 -1.190465528E+03  1.190465528E+03  0.000000000E+00  0.00000E+00  9.000E+00
      25     1     1     2     0     0 -4.811291755E+01 -1.219364781E+02 -3.189939074E+02  3.668336930E+02  1.250059511E+02  0.00000E+00  9.000E+00
       5     1     1     2   501     0  1.398818674E+00  7.917035531E-01  5.986790666E+00  7.809459051E+00  4.750000000E+00  0.00000E+00  9.000E+00
      -5     1     1     2     0   503  4.289347318E+01  1.174421517E+02 -8.415003215E+02  8.507513518E+02  4.750000000E+00  0.00000E+00  9.000E+00
      21     1     1     2   512   501  3.820625702E+00  3.702622829E+00  1.323833879E+01  1.426745284E+01  5.057621821E-07  0.00000E+00  9.000E+00
#rwgt            1           9   2.6960589614003403E-005           3     1215731           0
</event>
<event>
      6   9999  3.45752E-01  4.77303E+01 -1.00000E+00  1.35876E-01
      21    -1     0     0   501   511  0.000000000E+00  0.000000000E+00  2.937199747E+02  2.937199747E+02  0.000000000E+00  0.00000E+00  9.000E+00
      21    -1     0     0   502   503  0.000000000E+00  0.000000000E+00 -8.071485547E+02  8.071485547E+02  0.000000000E+00  0.00000E+00  9.000E+00
      25     1     1     2     0     0 -3.976197509E+01 -2.334690787E+01 -6.583388830E+02  6.716755878E+02  1.249476598E+02  0.00000E+00  9.000E+00
       5     1     1     2   501     0 -3.745629541E+00  2.793372900E+01 -4.256744371E+01  5.127253378E+01  4.750000000E+00  0.00000E+00  9.000E+00
      -5     1     1     2     0   503  7.210729829E+00  2.640859120E+01 -9.112087601E+01  9.526271495E+01  4.750000000E+00  0.00000E+00  9.000E+00
      21     1     1     2   502   511  3.629687481E+01 -3.099541233E+01  2.785986228E+02  2.826576928E+02  3.814697266E-06  0.00000E+00  9.000E+00
#rwgt            1           9   8.8534012103083752E-003           3     1221581           0
</event>
<event>
      6   9999 -3.45752E-01  7.93138E+00 -1.00000E+00  1.98459E-01
      21    -1     0     0   512   502  0.000000000E+00  0.000000000E+00  4.261621945E+01  4.261621945E+01  0.000000000E+00  0.00000E+00  9.000E+00
      21    -1     0     0   502   503  0.000000000E+00  0.000000000E+00 -3.123196109E+03  3.123196109E+03  0.000000000E+00  0.00000E+00  9.000E+00
      25     1     1     2     0     0  2.536524929E+01 -4.218520699E+01 -2.411513716E+02  2.760491787E+02  1.250047099E+02  0.00000E+00  9.000E+00
       5     1     1     2   501     0  1.002462452E+01  4.876732777E+00  2.160018285E+01  2.476703491E+01  4.750000000E+00  0.00000E+00  9.000E+00
      -5     1     1     2     0   503 -2.991217648E+01  3.157248690E+01 -2.854184966E+03  2.854520265E+03  4.750000000E+00  0.00000E+00  9.000E+00
      21     1     1     2   512   501 -5.477697334E+00  5.735987306E+00 -6.843734013E+00  1.047584907E+01  2.064765462E-07  0.00000E+00  9.000E+00
#rwgt            1           9  -6.2304397735370935E-004           3     1222181           0
</event>
<event>
      6   9999  3.45752E-01  4.23384E+00 -1.00000E+00  2.42851E-01
      21    -1     0     0   501   502  0.000000000E+00  0.000000000E+00  8.582599103E+00  8.582599103E+00  0.000000000E+00  0.00000E+00  9.000E+00
      21    -1     0     0   502   511  0.000000000E+00  0.000000000E+00 -9.838705735E+02  9.838705735E+02  0.000000000E+00  0.00000E+00  9.000E+00
      25     1     1     2     0     0 -3.556390462E+00 -9.494572279E+00 -6.669120681E+02  6.786012163E+02  1.250004376E+02  0.00000E+00  9.000E+00
       5     1     1     2   501     0  5.023153027E-01 -6.886949386E-01 -2.021113477E-01  4.830110804E+00  4.750000000E+00  0.00000E+00  9.000E+00
      -5     1     1     2     0   503  3.203001059E+00  5.952045625E+00 -4.149162222E+01  4.230606667E+01  4.750000000E+00  0.00000E+00  9.000E+00
      21     1     1     2   503   511 -1.489259000E-01  4.231221593E+00 -2.666821727E+02  2.667157788E+02  0.000000000E+00  0.00000E+00  9.000E+00
#rwgt            1           9   2.0597734823207442E-006           3     1227107           0
</event>
<event>
      6   9999  3.45752E-01  2.11691E+00 -1.00000E+00  3.23624E-01
      21    -1     0     0   501   502  0.000000000E+00  0.000000000E+00  9.764535634E+00  9.764535634E+00  0.000000000E+00  0.00000E+00  9.000E+00
      21    -1     0     0   512   503  0.000000000E+00  0.000000000E+00 -8.472848929E+02  8.472848929E+02  0.000000000E+00  0.00000E+00  9.000E+00
      25     1     1     2     0     0  8.074338312E+00  8.575245234E+00 -6.912684061E+02  7.025785534E+02  1.250035386E+02  0.00000E+00  9.000E+00
       5     1     1     2   501     0 -1.338697520E+00  2.028552251E-01  2.125491175E+00  5.377125071E+00  4.750000000E+00  0.00000E+00  9.000E+00
      -5     1     1     2     0   503 -4.678641761E+00 -8.278047775E+00 -8.244725815E+01  8.312958943E+01  4.750000000E+00  0.00000E+00  9.000E+00
      21     1     1     2   512   502 -2.056999031E+00 -5.000526849E-01 -6.593018417E+01  6.596416059E+01  9.536743164E-07  0.00000E+00  9.000E+00
#rwgt            1           9   9.8787919542914196E-006           3     1231017           0
</event>
<event>
      6   9999  3.45752E-01  5.55269E+00 -1.00000E+00  2.18855E-01
      21    -1     0     0   501   502  0.000000000E+00  0.000000000E+00  5.566687948E+01  5.566687948E+01  0.000000000E+00  0.00000E+00  9.000E+00
      21    -1     0     0   511   503  0.000000000E+00  0.000000000E+00 -2.564982550E+02  2.564982550E+02  0.000000000E+00  0.00000E+00  9.000E+00
      25     1     1     2     0     0 -7.005082715E+00  1.859075177E+01 -8.324327595E+01  1.514904160E+02  1.250008636E+02  0.00000E+00  9.000E+00
       5     1     1     2   501     0 -1.427560058E+00 -3.599602374E-01  2.030085325E+01  2.090106796E+01  4.750000000E+00  0.00000E+00  9.000E+00
      -5     1     1     2     0   503  9.725250345E+00 -1.283064586E+01 -1.151221154E+02  1.163394599E+02  4.750000000E+00  0.00000E+00  9.000E+00
      21     1     1     2   511   502 -1.292607572E+00 -5.400145665E+00 -2.276683745E+01  2.343419073E+01  4.768371582E-07  0.00000E+00  9.000E+00
#rwgt            1           9   8.7827687118235701E-002           3     1238401           0
</event>
<event>
      6   9999  3.45752E-01  1.87051E+01 -1.00000E+00  1.62461E-01
      21    -1     0     0   501   502  0.000000000E+00  0.000000000E+00  1.145887553E+01  1.145887553E+01  0.000000000E+00  0.00000E+00  9.000E+00
      21    -1     0     0   502   512  0.000000000E+00  0.000000000E+00 -1.035117370E+03  1.035117370E+03  0.000000000E+00  0.00000E+00  9.000E+00
      25     1     1     2     0     0 -3.007575464E+01 -3.696388548E+01 -4.940765690E+02  5.118667717E+02  1.250002247E+02  0.00000E+00  9.000E+00
       5     1     1     2   501     0  3.234557192E+00  6.238491520E+00 -8.951855813E+00  1.233204603E+01  4.750000000E+00  0.00000E+00  9.000E+00
      -5     1     1     2     0   503  1.103691782E+01  2.072017301E+01 -3.025810749E+02  3.035276075E+02  4.750000000E+00  0.00000E+00  9.000E+00
      21     1     1     2   503   512  1.580427963E+01  1.000522095E+01 -2.180489953E+02  2.188498208E+02  3.814697266E-06  0.00000E+00  9.000E+00
#rwgt            1           9  0.38702554997042687                3     1242517           0
</event>
<event>
      6   9999  3.45752E-01  2.05307E+01 -1.00000E+00  1.59347E-01
      21    -1     0     0   501   511  0.000000000E+00  0.000000000E+00  1.822883109E+02  1.822883109E+02  0.000000000E+00  0.00000E+00  9.000E+00
      21    -1     0     0   502   503  0.000000000E+00  0.000000000E+00 -9.458255423E+02  9.458255423E+02  0.000000000E+00  0.00000E+00  9.000E+00
      25     1     1     2     0     0 -2.389909425E+01  1.194454230E+01 -4.654981918E+02  4.827290217E+02  1.249996122E+02  0.00000E+00  9.000E+00
       5     1     1     2   501     0  5.574739257E-01  6.725466541E+00  6.676944288E+00  1.061540213E+01  4.750000000E+00  0.00000E+00  9.000E+00
      -5     1     1     2     0   503  1.524375376E+01  1.961582168E-01 -4.689677527E+02  4.692395189E+02  4.750000000E+00  0.00000E+00  9.000E+00
      21     1     1     2   502   511  8.097866563E+00 -1.886616705E+01  1.642517688E+02  1.655299105E+02  5.046370146E-06  0.00000E+00  9.000E+00
#rwgt            1           9   1.1132960535754357E-004           3     1245193           0
</event>
<event>
      6   9999  3.45752E-01  1.07683E+01 -1.00000E+00  1.83870E-01
      21    -1     0     0   501   512  0.000000000E+00  0.000000000E+00  9.240401735E+01  9.240401735E+01  0.000000000E+00  0.00000E+00  9.000E+00
      21    -1     0     0   502   503  0.000000000E+00  0.000000000E+00 -9.651842325E+02  9.651842325E+02  0.000000000E+00  0.00000E+00  9.000E+00
      25     1     1     2     0     0 -1.584316370E+01 -1.451988097E+01 -5.326667026E+02  5.475590894E+02  1.250012302E+02  0.00000E+00  9.000E+00
       5     1     1     2   501     0  2.438512173E+00 -4.446289742E+00  9.220511245E+00  1.154539569E+01  4.750000000E+00  0.00000E+00  9.000E+00
      -5     1     1     2     0   503  1.672803974E+01  8.723572965E+00 -4.232955837E+02  4.237424238E+02  4.750000000E+00  0.00000E+00  9.000E+00
      21     1     1     2   502   512 -3.323388208E+00  1.024259775E+01  7.396155986E+01  7.474134100E+01  9.536743164E-07  0.00000E+00  9.000E+00
#rwgt            1           9   5.0539484589014728E-002           3     1246842           0
</event>
<event>
      6   9999  3.45752E-01  1.80266E+01 -1.00000E+00  1.63732E-01
       2    -1     0     0   501     0  0.000000000E+00  0.000000000E+00  4.870917146E+02  4.870917146E+02  0.000000000E+00  0.00000E+00  9.000E+00
      21    -1     0     0   502   503  0.000000000E+00  0.000000000E+00 -1.491305485E+03  1.491305485E+03  0.000000000E+00  0.00000E+00  9.000E+00
      25     1     1     2     0     0 -1.972733850E+01 -2.845186813E+00 -1.304586080E+03  1.310712186E+03  1.249973189E+02  0.00000E+00  9.000E+00
       5     1     1     2   501     0 -2.216104437E+00 -1.504158669E+00 -5.831649500E+00  7.983999503E+00  4.750000000E+00  0.00000E+00  9.000E+00
      -5     1     1     2     0   503  5.094083090E+00 -2.058334558E+00 -1.765056050E+02  1.766549674E+02  4.750000000E+00  0.00000E+00  9.000E+00
       2     1     1     2   502     0  1.684935984E+01  6.407680039E+00  4.827095647E+02  4.830460466E+02  5.394796609E-06  0.00000E+00  9.000E+00
#rwgt            1           9   2.1404506175773028E-002           3     1249988           0
</event>
<event>
      6   9999 -3.45752E-01  1.00512E+01 -1.00000E+00  1.86960E-01
      21    -1     0     0   511   502  0.000000000E+00  0.000000000E+00  3.314524591E+01  3.314524591E+01  0.000000000E+00  0.00000E+00  9.000E+00
      21    -1     0     0   502   503  0.000000000E+00  0.000000000E+00 -3.651213701E+03  3.651213701E+03  0.000000000E+00  0.00000E+00  9.000E+00
      25     1     1     2     0     0  3.194083385E+01 -9.365477436E+00 -2.672102835E+03  2.675231682E+03  1.249922413E+02  0.00000E+00  9.000E+00
       5     1     1     2   501     0  5.927195884E+00  1.924427218E+00 -2.566002101E+00  8.245116006E+00  4.750000000E+00  0.00000E+00  9.000E+00
      -5     1     1     2     0   503 -3.146864189E+01  1.519179886E+01 -9.709321195E+02  9.715723387E+02  4.750000000E+00  0.00000E+00  9.000E+00
      21     1     1     2   511   501 -6.399387836E+00 -7.750748646E+00  2.753250229E+01  2.930980982E+01  3.144957056E-06  0.00000E+00  9.000E+00
#rwgt            1           9  -5.8496980445389160E-002           3     1251267           0
</event>
<event>
      6   9999  3.45752E-01  2.07382E+02 -1.00000E+00  1.08352E-01
      21    -1     0     0   512   502  0.000000000E+00  0.000000000E+00  2.661456912E+01  2.661456912E+01  0.000000000E+00  0.00000E+00  9.000E+00
       2    -1     0     0   501     0  0.000000000E+00  0.000000000E+00 -2.179782245E+03  2.179782245E+03  0.000000000E+00  0.00000E+00  9.000E+00
      25     1     1     2     0     0 -1.108472919E+01  1.330652731E+02 -7.227607244E+02  7.455456094E+02  1.250038117E+02  0.00000E+00  9.000E+00
       5     1     1     2   501     0 -2.355808649E+01  4.793176998E+01 -3.109851171E+02  3.155736738E+02  4.750000000E+00  0.00000E+00  9.000E+00
      -5     1     1     2     0   502  1.521267451E+01  2.547246027E+01 -8.202235008E+01  8.735273385E+01  4.750000000E+00  0.00000E+00  9.000E+00
       2     1     1     2   512     0  1.943014117E+01 -2.064695033E+02 -1.037399485E+03  1.057924797E+03  1.525878906E-05  0.00000E+00  9.000E+00
#rwgt            1           3   3.9576132439343957E-002           3     1253799           0
</event>
<event>
      6   9999  3.45752E-01  3.24184E+01 -1.00000E+00  1.45692E-01
      21    -1     0     0   501   502  0.000000000E+00  0.000000000E+00  1.563575061E+01  1.563575061E+01  0.000000000E+00  0.00000E+00  9.000E+00
      21    -1     0     0   511   503  0.000000000E+00  0.000000000E+00 -6.790365232E+02  6.790365232E+02  0.000000000E+00  0.00000E+00  9.000E+00
      25     1     1     2     0     0  1.640691932E+00 -2.960646240E+01 -4.332363378E+02  4.518925595E+02  1.250357009E+02  0.00000E+00  9.000E+00
       5     1     1     2   501     0 -9.529443722E-01 -1.392277522E+00 -2.015844089E+00  5.428873462E+00  4.750000000E+00  0.00000E+00  9.000E+00
      -5     1     1     2     0   503 -1.657715657E+01  2.741308846E+00 -1.940241678E+01  2.610235949E+01  4.750000000E+00  0.00000E+00  9.000E+00
      21     1     1     2   511   502  1.588940901E+01  2.825743107E+01 -2.087461740E+02  2.112484813E+02  2.697398305E-06  0.00000E+00  9.000E+00
#rwgt            1           9   7.9735838220367547E-004           3     1254088           0
</event>
<event>
      6   9999  3.45752E-01  7.34816E+01 -1.00000E+00  1.26410E-01
      21    -1     0     0   512   503  0.000000000E+00  0.000000000E+00  4.154936913E+01  4.154936913E+01  0.000000000E+00  0.00000E+00  9.000E+00
      21    -1     0     0   501   502  0.000000000E+00  0.000000000E+00 -1.288168475E+03  1.288168475E+03  0.000000000E+00  0.00000E+00  9.000E+00
      25     1     1     2     0     0 -1.266517843E+02  1.038682944E+02 -6.136125864E+02  6.472769852E+02  1.249711655E+02  0.00000E+00  9.000E+00
       5     1     1     2   501     0 -1.484560326E+01 -1.162279477E+01 -3.648547444E+02  3.653724515E+02  4.750000000E+00  0.00000E+00  9.000E+00
      -5     1     1     2     0   503  8.170572854E+01 -4.953130985E+01 -1.478734610E+02  1.761201286E+02  4.750000000E+00  0.00000E+00  9.000E+00
      21     1     1     2   512   502  5.979165901E+01 -4.271418983E+01 -1.202783140E+02  1.409482789E+02  1.348699152E-06  0.00000E+00  9.000E+00
#rwgt            1           9  0.15568672940179445                3     1254757           0
</event>
<event>
      6   9999  3.45752E-01  1.10647E+01 -1.00000E+00  1.82681E-01
      21    -1     0     0   501   502  0.000000000E+00  0.000000000E+00  1.624954592E+01  1.624954592E+01  0.000000000E+00  0.00000E+00  9.000E+00
      21    -1     0     0   511   503  0.000000000E+00  0.000000000E+00 -1.105825996E+03  1.105825996E+03  0.000000000E+00  0.00000E+00  9.000E+00
      25     1     1     2     0     0 -2.186049095E+01 -5.063811625E+01 -4.711169221E+02  4.905286849E+02  1.250005463E+02  0.00000E+00  9.000E+00
       5     1     1     2   501     0  2.297533625E+00 -2.316589100E+00  3.411744426E+00  6.696845962E+00  4.750000000E+00  0.00000E+00  9.000E+00
      -5     1     1     2     0   503  2.109450719E+01  4.199649940E+01 -5.606931773E+02  5.626793810E+02  4.750000000E+00  0.00000E+00  9.000E+00
      21     1     1     2   511   502 -1.531549867E+00  1.095820595E+01 -6.117809524E+01  6.217063020E+01  6.743495762E-07  0.00000E+00  9.000E+00
#rwgt            1           9   9.0269150188532806E-004           3     1255361           0
</event>
<event>
      6   9999  3.45752E-01  1.96904E+01 -1.00000E+00  1.60729E-01
      21    -1     0     0   501   502  0.000000000E+00  0.000000000E+00  1.508140934E+01  1.508140934E+01  0.000000000E+00  0.00000E+00  9.000E+00
      21    -1     0     0   502   512  0.000000000E+00  0.000000000E+00 -1.719414319E+03  1.719414319E+03  0.000000000E+00  0.00000E+00  9.000E+00
      25     1     1     2     0     0 -4.179479398E+01 -3.338327482E+01 -6.028261626E+02  6.179685693E+02  1.249980899E+02  0.00000E+00  9.000E+00
       5     1     1     2   501     0 -2.562788514E+00 -2.602364253E+00  3.842480135E+00  7.118099343E+00  4.750000000E+00  0.00000E+00  9.000E+00
      -5     1     1     2     0   503  4.073143664E+01  1.663200404E+01 -2.535767180E+02  2.574089896E+02  4.750000000E+00  0.00000E+00  9.000E+00
      21     1     1     2   503   512  3.626145859E+00  1.935363504E+01 -8.517725091E+02  8.520000700E+02  1.525878906E-05  0.00000E+00  9.000E+00
#rwgt            1           9   1.1390308580865158E-003           3     1258092           0
</event>
<event>
      6   9999  3.45752E-01  2.11748E+01 -1.00000E+00  1.58341E-01
      21    -1     0     0   511   503  0.000000000E+00  0.000000000E+00  5.437419408E+02  5.437419408E+02  0.000000000E+00  0.00000E+00  9.000E+00
      21    -1     0     0   501   502  0.000000000E+00  0.000000000E+00 -8.648937294E+02  8.648937294E+02  0.000000000E+00  0.00000E+00  9.000E+00
      25     1     1     2     0     0 -1.528134242E+01  2.169515222E+01 -4.925997491E+02  5.089038228E+02  1.249975560E+02  0.00000E+00  9.000E+00
       5     1     1     2   501     0  1.726599506E+01 -4.486628245E+01 -3.129468628E+02  3.166534373E+02  4.750000000E+00  0.00000E+00  9.000E+00
      -5     1     1     2     0   503 -2.077691337E+01  1.341293932E+01 -4.590363770E+01  5.235736362E+01  4.750000000E+00  0.00000E+00  9.000E+00
      21     1     1     2   511   502  1.879226073E+01  9.758190902E+00  5.302984610E+02  5.307210464E+02  1.078959322E-05  0.00000E+00  9.000E+00
#rwgt            1           9  0.10069325107546288                3     1259788           0
</event>
<event>
      6   9999 -3.45752E-01  1.79012E+01 -1.00000E+00  1.63974E-01
      21    -1     0     0   501   502  0.000000000E+00  0.000000000E+00  1.523444620E+01  1.523444620E+01  0.000000000E+00  0.00000E+00  9.000E+00
      21    -1     0     0   512   503  0.000000000E+00  0.000000000E+00 -8.320544970E+02  8.320544970E+02  0.000000000E+00  0.00000E+00  9.000E+00
      25     1     1     2     0     0  7.023502429E+01  6.763192946E+00 -5.387980790E+02  5.575911870E+02  1.250034498E+02  0.00000E+00  9.000E+00
       5     1     1     2   501     0  3.666040566E-01  3.740730707E-02 -4.466718677E+00  6.530687068E+00  4.750000000E+00  0.00000E+00  9.000E+00
      -5     1     1     2     0   503 -5.280936529E+01 -4.828506262E+00 -1.721968747E+02  1.802400336E+02  4.750000000E+00  0.00000E+00  9.000E+00
      21     1     1     2   512   502 -1.779226306E+01 -1.972093991E+00 -1.013583784E+02  1.029270356E+02  1.907348633E-06  0.00000E+00  9.000E+00
#rwgt            1           9  -1.0387813041327148E-002           3     1261939           0
</event>
<event>
      6   9999 -3.45752E-01  1.88936E+01 -1.00000E+00  1.62120E-01
      21    -1     0     0   501   502  0.000000000E+00  0.000000000E+00  1.556959277E+01  1.556959277E+01  0.000000000E+00  0.00000E+00  9.000E+00
      21    -1     0     0   502   511  0.000000000E+00  0.000000000E+00 -4.749097333E+02  4.749097333E+02  0.000000000E+00  0.00000E+00  9.000E+00
      25     1     1     2     0     0  1.160226795E+01 -6.990397785E+00 -3.543412218E+02  3.759871590E+02  1.250006559E+02  0.00000E+00  9.000E+00
       5     1     1     2   501     0 -2.185895084E-01 -1.042800581E+00 -1.314159696E+00  5.042294134E+00  4.750000000E+00  0.00000E+00  9.000E+00
      -5     1     1     2     0   503 -8.545135553E+00 -1.064592553E+01 -2.886764572E+01  3.228402920E+01  4.750000000E+00  0.00000E+00  9.000E+00
      21     1     1     2   503   511 -2.838542888E+00  1.867912390E+01 -7.481711338E+01  7.716584381E+01  0.000000000E+00  0.00000E+00  9.000E+00
#rwgt            1           9  -5.2600009671861251E-005           3     1263707           0
</event>
<event>
      6   9999  3.45752E-01  4.07319E+01 -1.00000E+00  1.39731E-01
      21    -1     0     0   501   512  0.000000000E+00  0.000000000E+00  3.586826403E+02  3.586826403E+02  0.000000000E+00  0.00000E+00  9.000E+00
      21    -1     0     0   502   503  0.000000000E+00  0.000000000E+00 -1.264733916E+03  1.264733916E+03  0.000000000E+00  0.00000E+00  9.000E+00
      25     1     1     2     0     0  7.778795931E+01  4.864055052E+01 -1.181516055E+03  1.191646781E+03  1.249999656E+02  0.00000E+00  9.000E+00
       5     1     1     2   501     0 -2.157548825E+00  1.807894851E+01  1.208166742E+02  1.222731969E+02  4.750000000E+00  0.00000E+00  9.000E+00
      -5     1     1     2     0   503 -4.064179899E+01 -4.586567169E+01 -6.303117611E+01  8.803923742E+01  4.750000000E+00  0.00000E+00  9.000E+00
      21     1     1     2   502   512 -3.498861149E+01 -2.085382734E+01  2.176792807E+02  2.214573420E+02  4.672030912E-06  0.00000E+00  9.000E+00
#rwgt            1           9   3.2432080504143572E-003           3     1265094           0
</event>
<event>
      6   9999 -3.45752E-01  1.61632E+01 -1.00000E+00  1.67607E-01
      21    -1     0     0   501   502  0.000000000E+00  0.000000000E+00  6.838159217E+00  6.838159217E+00  0.000000000E+00  0.00000E+00  9.000E+00
      21    -1     0     0   511   503  0.000000000E+00  0.000000000E+00 -1.018714735E+03  1.018714735E+03  0.000000000E+00  0.00000E+00  9.000E+00
      25     1     1     2     0     0  1.306525093E+01 -1.382325075E+01 -6.598620260E+02  6.718660368E+02  1.249971800E+02  0.00000E+00  9.000E+00
       5     1     1     2   501     0 -1.650210244E+00  1.819408292E-01 -1.637311316E+01  1.712885376E+01  4.750000000E+00  0.00000E+00  9.000E+00
      -5     1     1     2     0   503  1.390381343E-01  2.338511987E+00 -2.826699497E+01  2.875888514E+01  4.750000000E+00  0.00000E+00  9.000E+00
      21     1     1     2   511   502 -1.155407882E+01  1.130279793E+01 -3.073744418E+02  3.077991186E+02  0.000000000E+00  0.00000E+00  9.000E+00
#rwgt            1           9  -1.3451565887714107E-002           3     1267046           0
</event>
<event>
      6   9999 -3.45752E-01  5.68586E+00 -1.00000E+00  2.17364E-01
      21    -1     0     0   501   502  0.000000000E+00  0.000000000E+00  1.417881536E+01  1.417881536E+01  0.000000000E+00  0.00000E+00  9.000E+00
       1    -1     0     0   502     0  0.000000000E+00  0.000000000E+00 -1.521795388E+03  1.521795388E+03  0.000000000E+00  0.00000E+00  9.000E+00
      25     1     1     2     0     0  1.307032912E+01  1.382017973E+01 -8.581829293E+02  8.674556354E+02  1.250580198E+02  0.00000E+00  9.000E+00
       5     1     1     2   501     0 -1.516396151E+00  2.421593883E+00  5.275457615E+00  7.652223681E+00  4.750000000E+00  0.00000E+00  9.000E+00
      -5     1     1     2     0   503 -8.386579152E+00 -1.151981551E+01 -1.532970924E+01  2.146167152E+01  4.750000000E+00  0.00000E+00  9.000E+00
       1     1     1     2   503     0 -3.167353815E+00 -4.721958107E+00 -6.393793914E+02  6.394046724E+02  7.629394531E-06  0.00000E+00  9.000E+00
#rwgt            1           9  -5.5577955015924781E-005           3     1268656           0
</event>
<event>
      6   9999  3.45752E-01  2.09314E+01 -1.00000E+00  1.58716E-01
      21    -1     0     0   511   503  0.000000000E+00  0.000000000E+00  2.317120991E+02  2.317120991E+02  0.000000000E+00  0.00000E+00  9.000E+00
      21    -1     0     0   501   502  0.000000000E+00  0.000000000E+00 -1.316842256E+03  1.316842256E+03  0.000000000E+00  0.00000E+00  9.000E+00
      25     1     1     2     0     0  2.245051752E+00  2.252771141E+01 -4.228567933E+01  1.339574627E+02  1.250759174E+02  0.00000E+00  9.000E+00
       5     1     1     2   501     0  1.400671306E+01 -2.507629934E+01 -1.186556699E+03  1.186913801E+03  4.750000000E+00  0.00000E+00  9.000E+00
      -5     1     1     2     0   503 -7.156193537E+00 -1.630325800E+01 -3.933792864E+01  4.344010194E+01  4.750000000E+00  0.00000E+00  9.000E+00
      21     1     1     2   511   502 -9.095571279E+00  1.885184593E+01  1.830501503E+02  1.842429891E+02  3.814697266E-06  0.00000E+00  9.000E+00
#rwgt            1           9  0.26194774312542879                3     1272386           0
</event>
<event>
      6   9999  3.45752E-01  5.70300E+01 -1.00000E+00  1.31800E-01
      21    -1     0     0   501   502  0.000000000E+00  0.000000000E+00  4.036463813E+01  4.036463813E+01  0.000000000E+00  0.00000E+00  9.000E+00
      21    -1     0     0   512   503  0.000000000E+00  0.000000000E+00 -1.488747834E+03  1.488747834E+03  0.000000000E+00  0.00000E+00  9.000E+00
      25     1     1     2     0     0 -1.166823616E+02 -1.089558522E+02 -4.835095267E+02  5.243009756E+02  1.249955976E+02  0.00000E+00  9.000E+00
       5     1     1     2   501     0 -3.089347237E+00  1.267374280E+00 -1.183552452E+00  5.925672985E+00  4.750000000E+00  0.00000E+00  9.000E+00
      -5     1     1     2     0   503  1.764726907E+02  1.015717906E+02 -6.960053413E+02  7.251933789E+02  4.750000000E+00  0.00000E+00  9.000E+00
      21     1     1     2   512   502 -5.670098186E+01  6.116687346E+00 -2.676847754E+02  2.736924445E+02  3.814697266E-06  0.00000E+00  9.000E+00
#rwgt            1           9   2.4120425240943200E-002           3     1275135           0
</event>
<event>
      6   9999  3.45752E-01  5.65424E+01 -1.00000E+00  1.31991E-01
       1    -1     0     0   501     0  0.000000000E+00  0.000000000E+00  1.323365024E+02  1.323365024E+02  0.000000000E+00  0.00000E+00  9.000E+00
      21    -1     0     0   502   503  0.000000000E+00  0.000000000E+00 -1.164747473E+03  1.164747473E+03  0.000000000E+00  0.00000E+00  9.000E+00
      25     1     1     2     0     0 -3.380654151E+01 -1.617302817E+01 -1.013112573E+03  1.021485427E+03  1.250237648E+02  0.00000E+00  9.000E+00
       5     1     1     2   501     0  9.136856697E+01  4.638283225E+01 -6.942725330E+01  1.238639906E+02  4.750000000E+00  0.00000E+00  9.000E+00
      -5     1     1     2     0   503 -7.041553210E+00 -4.818350993E+00 -4.228361543E+01  4.339661982E+01  4.750000000E+00  0.00000E+00  9.000E+00
       1     1     1     2   502     0 -5.052047225E+01 -2.539145309E+01  9.241247136E+01  1.083379383E+02  2.697398305E-06  0.00000E+00  9.000E+00
#rwgt            1           9   2.2862223085822617E-002           3     1276295           0
</event>
<event>
      6   9999  3.45752E-01  1.87266E+01 -1.00000E+00  1.62422E-01
      21    -1     0     0   501   502  0.000000000E+00  0.000000000E+00  2.795992797E+02  2.795992797E+02  0.000000000E+00  0.00000E+00  9.000E+00
      21    -1     0     0   502   511  0.000000000E+00  0.000000000E+00 -4.511985581E+01  4.511985581E+01  0.000000000E+00  0.00000E+00  9.000E+00
      25     1     1     2     0     0  2.436352454E+01 -1.216870323E+01  9.781865909E+01  1.610450419E+02  1.250014271E+02  0.00000E+00  9.000E+00
       5     1     1     2   501     0  8.238466316E-01 -1.794632391E+00  1.223178156E+02  1.224259366E+02  4.750000000E+00  0.00000E+00  9.000E+00
      -5     1     1     2     0   503 -1.844345957E+01 -3.506777616E+00  1.085249458E+01  2.219905017E+01  4.750000000E+00  0.00000E+00  9.000E+00
      21     1     1     2   503   511 -6.743911607E+00  1.747011323E+01  3.490454637E+00  1.904910690E+01  5.960464478E-08  0.00000E+00  9.000E+00
#rwgt            1           9   1.8772943162296903E-004           3     1277614           0
</event>
<event>
      6   9999  3.45752E-01  8.62119E+00 -1.00000E+00  1.94246E-01
      21    -1     0     0   501   502  0.000000000E+00  0.000000000E+00  3.821561537E+03  3.821561537E+03  0.000000000E+00  0.00000E+00  9.000E+00
      21    -1     0     0   502   512  0.000000000E+00  0.000000000E+00 -3.083365886E+00  3.083365886E+00  0.000000000E+00  0.00000E+00  9.000E+00
      25     1     1     2     0     0  2.365463557E+01  2.677897379E+00  3.106496765E+03  3.109101689E+03  1.249977800E+02  0.00000E+00  9.000E+00
       5     1     1     2   501     0 -2.266558467E+01 -1.060534360E+01  6.149405952E+02  6.154678709E+02  4.750000000E+00  0.00000E+00  9.000E+00
      -5     1     1     2     0   503 -3.195017408E+00 -4.067418063E-01  8.538503406E+01  8.557768468E+01  4.750000000E+00  0.00000E+00  9.000E+00
      21     1     1     2   503   512  2.205966509E+00  8.334188028E+00  1.165577695E+01  1.449765894E+01  6.529361695E-07  0.00000E+00  9.000E+00
#rwgt            1           9   8.9868781621280352E-003           3     1279289           0
</event>
<event>
      6   9999  3.45752E-01  1.12244E+01 -1.00000E+00  1.82060E-01
      21    -1     0     0   501   502  0.000000000E+00  0.000000000E+00  5.364432324E+01  5.364432324E+01  0.000000000E+00  0.00000E+00  9.000E+00
      21    -1     0     0   502   511  0.000000000E+00  0.000000000E+00 -1.183242451E+02  1.183242451E+02  0.000000000E+00  0.00000E+00  9.000E+00
      25     1     1     2     0     0 -7.254458719E+00  7.506035586E+00 -3.813449139E+01  1.311024126E+02  1.249985417E+02  0.00000E+00  9.000E+00
       5     1     1     2   501     0 -2.331263033E-01  4.625409075E-01  2.217811519E+00  5.267777510E+00  4.750000000E+00  0.00000E+00  9.000E+00
      -5     1     1     2     0   503 -9.054583705E-01 -5.157723074E-01 -1.532779119E-01  4.865374606E+00  4.750000000E+00  0.00000E+00  9.000E+00
      21     1     1     2   503   511  8.393043393E+00 -7.452804186E+00 -2.860996410E+01  3.073300365E+01  3.371747881E-07  0.00000E+00  9.000E+00
#rwgt            1           9   5.9177936438233845E-003           3     1281594           0
</event>
<event>
      6   9999  3.45752E-01  7.35056E+00 -1.00000E+00  2.02471E-01
      21    -1     0     0   501   502  0.000000000E+00  0.000000000E+00  1.266949811E+01  1.266949811E+01  0.000000000E+00  0.00000E+00  9.000E+00
       1    -1     0     0   502     0  0.000000000E+00  0.000000000E+00 -1.060367393E+03  1.060367393E+03  0.000000000E+00  0.00000E+00  9.000E+00
      25     1     1     2     0     0  7.954910966E+00  2.137103604E+01 -5.556990556E+02  5.700407921E+02  1.250002501E+02  0.00000E+00  9.000E+00
       5     1     1     2   501     0 -1.581159166E+00 -9.866868705E-01  3.718801794E+00  6.313921291E+00  4.750000000E+00  0.00000E+00  9.000E+00
      -5     1     1     2     0   503 -1.291362057E+01 -1.702862054E+01 -2.864140696E+02  2.872495732E+02  4.750000000E+00  0.00000E+00  9.000E+00
       1     1     1     2   503     0  6.539868771E+00 -3.355728625E+00 -2.093035711E+02  2.094326041E+02  4.672030912E-06  0.00000E+00  9.000E+00
#rwgt            1           9   1.1247825800556098E-003           3     1283717           0
</event>
<event>
      6   9999 -3.45752E-01  1.95913E+01 -1.00000E+00  1.60898E-01
      21    -1     0     0   511   502  0.000000000E+00  0.000000000E+00  2.370329662E+03  2.370329662E+03  0.000000000E+00  0.00000E+00  9.000E+00
      21    -1     0     0   502   503  0.000000000E+00  0.000000000E+00 -1.544420641E+01  1.544420641E+01  0.000000000E+00  0.00000E+00  9.000E+00
      25     1     1     2     0     0 -5.969289097E+01 -3.092956731E+01  3.789954052E+02  4.046981709E+02  1.249928518E+02  0.00000E+00  9.000E+00
       5     1     1     2   501     0 -1.430609592E+00 -2.073298768E+00  1.508418183E+03  1.508427765E+03  4.750000000E+00  0.00000E+00  9.000E+00
      -5     1     1     2     0   503  4.390245427E+01  2.366189843E+01  3.264981533E+02  3.303194174E+02  4.750000000E+00  0.00000E+00  9.000E+00
      21     1     1     2   511   501  1.722104629E+01  9.340967651E+00  1.409737142E+02  1.423285151E+02  1.907348633E-06  0.00000E+00  9.000E+00
#rwgt            1           9 -0.11658236003424463                3     1287892           0
</event>
<event>
      6   9999  3.45752E-01  1.04712E+01 -1.00000E+00  1.85112E-01
      21    -1     0     0   501   512  0.000000000E+00  0.000000000E+00  3.368249287E+02  3.368249287E+02  0.000000000E+00  0.00000E+00  9.000E+00
      21    -1     0     0   502   503  0.000000000E+00  0.000000000E+00 -1.666858272E+03  1.666858272E+03  0.000000000E+00  0.00000E+00  9.000E+00
      25     1     1     2     0     0  1.530535833E+01  3.163612558E+01 -8.240494027E+02  8.342169965E+02  1.250019228E+02  0.00000E+00  9.000E+00
       5     1     1     2   501     0  1.347120427E+01  6.039521272E+00  8.781033148E+01  8.916931074E+01  4.750000000E+00  0.00000E+00  9.000E+00
      -5     1     1     2     0   503 -2.250201868E+01 -4.605869917E+01 -8.361408545E+02  8.377242003E+02  4.750000000E+00  0.00000E+00  9.000E+00
      21     1     1     2   502   512 -6.274543915E+00  8.383052324E+00  2.423465824E+02  2.425726932E+02  7.136645101E-06  0.00000E+00  9.000E+00
#rwgt            1           9   4.7635533560735213E-005           3     1289778           0
</event>
<event>
      6   9999  3.45752E-01  1.52121E+01 -1.00000E+00  1.69845E-01
      21    -1     0     0   502   503  0.000000000E+00  0.000000000E+00  4.264311718E+03  4.264311718E+03  0.000000000E+00  0.00000E+00  9.000E+00
      21    -1     0     0   511   502  0.000000000E+00  0.000000000E+00 -1.279766239E+01  1.279766239E+01  0.000000000E+00  0.00000E+00  9.000E+00
      25     1     1     2     0     0  4.018942333E+01 -1.180544376E+02  2.906393544E+03  2.911751724E+03  1.249905113E+02  0.00000E+00  9.000E+00
       5     1     1     2   501     0 -2.342846168E+01  1.277358417E+01  2.588900109E+02  2.603049318E+02  4.750000000E+00  0.00000E+00  9.000E+00
      -5     1     1     2     0   503 -1.549105590E+00  1.051942805E+02  1.084659094E+03  1.089759675E+03  4.750000000E+00  0.00000E+00  9.000E+00
      21     1     1     2   511   501 -1.521185606E+01  8.657301007E-02  1.571406749E+00  1.529305001E+01  1.158846742E-06  0.00000E+00  9.000E+00
#rwgt            1           9   1.0213154166184055E-002           3     1294865           0
</event>
<event>
      6   9999 -3.45752E-01  1.18345E+01 -1.00000E+00  1.79804E-01
      21    -1     0     0   502   512  0.000000000E+00  0.000000000E+00  2.448635736E+01  2.448635736E+01  0.000000000E+00  0.00000E+00  9.000E+00
      21    -1     0     0   501   502  0.000000000E+00  0.000000000E+00 -6.466973159E+02  6.466973159E+02  0.000000000E+00  0.00000E+00  9.000E+00
      25     1     1     2     0     0  1.398799424E+01 -7.527651247E+00 -5.580799514E+02  5.721283322E+02  1.250010675E+02  0.00000E+00  9.000E+00
       5     1     1     2   501     0  2.003520666E-01 -3.123449328E-01 -1.498815766E+01  1.572720796E+01  4.750000000E+00  0.00000E+00  9.000E+00
      -5     1     1     2     0   503 -7.934212825E+00 -2.206954303E+00 -6.379163568E+01  6.449618332E+01  4.750000000E+00  0.00000E+00  9.000E+00
      21     1     1     2   503   512 -6.254133485E+00  1.004695048E+01  1.464878610E+01  1.883194982E+01  1.359195024E-06  0.00000E+00  9.000E+00
#rwgt            1           9  -2.5697238686461744E-005           3     1296972           0
</event>
<event>
      6   9999  3.45752E-01  2.69173E+01 -1.00000E+00  1.50950E-01
      21    -1     0     0   502   511  0.000000000E+00  0.000000000E+00  5.805888895E+01  5.805888895E+01  0.000000000E+00  0.00000E+00  9.000E+00
      21    -1     0     0   501   502  0.000000000E+00  0.000000000E+00 -6.902474569E+02  6.902474569E+02  0.000000000E+00  0.00000E+00  9.000E+00
      25     1     1     2     0     0  1.654196367E+01  2.063545866E+01 -5.772947365E+02  5.912645872E+02  1.250005621E+02  0.00000E+00  9.000E+00
       5     1     1     2   501     0 -9.154167981E+00  8.740662611E-01 -5.920577158E+01  6.010364941E+01  4.750000000E+00  0.00000E+00  9.000E+00
      -5     1     1     2     0   503 -6.385000681E+00  5.389104808E+00 -4.215559075E+01  4.323733359E+01  4.750000000E+00  0.00000E+00  9.000E+00
      21     1     1     2   503   511 -1.002795007E+00 -2.689862973E+01  4.646753090E+01  5.370077567E+01  0.000000000E+00  0.00000E+00  9.000E+00
#rwgt            1           9   1.9271340956247616E-003           3     1298820           0
</event>
<event>
      6   9999 -3.45752E-01  3.74812E+00 -1.00000E+00  2.53845E-01
      21    -1     0     0   501   512  0.000000000E+00  0.000000000E+00  1.344283104E+01  1.344283104E+01  0.000000000E+00  0.00000E+00  9.000E+00
      21    -1     0     0   502   503  0.000000000E+00  0.000000000E+00 -8.716063378E+02  8.716063378E+02  0.000000000E+00  0.00000E+00  9.000E+00
      25     1     1     2     0     0  8.311861252E-01  7.917187169E-01 -8.413625018E+02  8.505979886E+02  1.249990445E+02  0.00000E+00  9.000E+00
       5     1     1     2   501     0 -2.058892312E+00  3.833492210E+00  6.735813413E+00  9.320320939E+00  4.750000000E+00  0.00000E+00  9.000E+00
      -5     1     1     2     0   503  1.334703074E+00 -8.786150360E-01 -1.214876035E+01  1.314185203E+01  4.750000000E+00  0.00000E+00  9.000E+00
      21     1     1     2   502   512 -1.069968873E-01 -3.746595891E+00 -1.138805807E+01  1.198900729E+01  1.685873940E-07  0.00000E+00  9.000E+00
#rwgt            1           9  -1.0048871031318085E-003           3     1299657           0
</event>
<event>
      6   9999  3.45752E-01  1.11514E+01 -1.00000E+00  1.82342E-01
      21    -1     0     0   511   502  0.000000000E+00  0.000000000E+00  1.205962842E+01  1.205962842E+01  0.000000000E+00  0.00000E+00  9.000E+00
      21    -1     0     0   502   503  0.000000000E+00  0.000000000E+00 -8.338540080E+02  8.338540080E+02  0.000000000E+00  0.00000E+00  9.000E+00
      25     1     1     2     0     0 -2.202341333E+01  1.952702424E+01 -5.107326483E+02  5.266301721E+02  1.250006591E+02  0.00000E+00  9.000E+00
       5     1     1     2   501     0  2.314419568E+01 -2.885119350E+01 -1.635915530E+02  1.677879729E+02  4.750000000E+00  0.00000E+00  9.000E+00
      -5     1     1     2     0   503 -1.055728971E+01  1.526604475E+01 -1.244546910E+02  1.259207731E+02  4.750000000E+00  0.00000E+00  9.000E+00
      21     1     1     2   511   501  9.436507373E+00 -5.941875495E+00 -2.301548734E+01  2.557471825E+01  5.840038640E-07  0.00000E+00  9.000E+00
#rwgt            1           9  0.13408012586942808                3     1304856           0
</event>
<event>
      6   9999 -3.45752E-01  1.60967E+01 -1.00000E+00  1.67758E-01
      21    -1     0     0   501   512  0.000000000E+00  0.000000000E+00  2.179680959E+01  2.179680959E+01  0.000000000E+00  0.00000E+00  9.000E+00
      21    -1     0     0   502   503  0.000000000E+00  0.000000000E+00 -8.148071636E+02  8.148071636E+02  0.000000000E+00  0.00000E+00  9.000E+00
      25     1     1     2     0     0  9.277368898E+00 -2.073858084E+00 -7.443021875E+02  7.547838093E+02  1.249899278E+02  0.00000E+00  9.000E+00
       5     1     1     2   501     0  2.820163315E+00 -4.805886312E+00  3.819898029E+00  8.258570416E+00  4.750000000E+00  0.00000E+00  9.000E+00
      -5     1     1     2     0   503  1.472855386E+00 -1.777474227E+00 -5.669008551E+01  5.693555140E+01  4.750000000E+00  0.00000E+00  9.000E+00
      21     1     1     2   502   512 -1.357038760E+01  8.657218623E+00  4.162021017E+00  1.662604201E+01  6.165552397E-07  0.00000E+00  9.000E+00
#rwgt            1           9  -1.0908255669839861E-004           3     1307068           0
</event>
<event>
      6   9999  3.45752E-01  5.31544E+01 -1.00000E+00  1.33381E-01
      21    -1     0     0   501   502  0.000000000E+00  0.000000000E+00  1.363678934E+02  1.363678934E+02  0.000000000E+00  0.00000E+00  9.000E+00
      21    -1     0     0   502   511  0.000000000E+00  0.000000000E+00 -1.925281114E+03  1.925281114E+03  0.000000000E+00  0.00000E+00  9.000E+00
      25     1     1     2     0     0  1.725223017E+02 -9.631591586E+01 -1.577826049E+03  1.595055756E+03  1.250085008E+02  0.00000E+00  9.000E+00
       5     1     1     2   501     0  1.141824553E+01 -4.639188870E+00  6.923452314E+01  7.048319018E+01  4.750000000E+00  0.00000E+00  9.000E+00
      -5     1     1     2     0   503 -1.731462483E+02  4.890825536E+01 -9.540724418E+01  2.037074998E+02  4.750000000E+00  0.00000E+00  9.000E+00
      21     1     1     2   503   511 -1.079429892E+01  5.204684936E+01 -1.849144503E+02  1.924025606E+02  0.000000000E+00  0.00000E+00  9.000E+00
#rwgt            1           9   1.1623872199311569E-004           3     1309070           0
</event>
<event>
      6   9999  3.45752E-01  2.34845E+01 -1.00000E+00  1.55063E-01
      21    -1     0     0   501   502  0.000000000E+00  0.000000000E+00  2.751046374E+02  2.751046374E+02  0.000000000E+00  0.00000E+00  9.000E+00
      21    -1     0     0   512   503  0.000000000E+00  0.000000000E+00 -6.402865442E+01  6.402865442E+01  0.000000000E+00  0.00000E+00  9.000E+00
      25     1     1     2     0     0 -1.707678414E+01  4.227350895E+01  4.402734643E+01  1.401509411E+02  1.250008517E+02  0.00000E+00  9.000E+00
       5     1     1     2   501     0 -3.838027988E+00 -6.417631093E-01  8.612636094E+01  8.634497593E+01  4.750000000E+00  0.00000E+00  9.000E+00
      -5     1     1     2     0   503 -1.221557764E+00 -3.378942153E+01  8.231125438E+01  8.911185279E+01  4.750000000E+00  0.00000E+00  9.000E+00
      21     1     1     2   512   502  2.213636989E+01 -7.842324309E+00 -1.388978796E+00  2.352552199E+01  8.296615426E-08  0.00000E+00  9.000E+00
#rwgt            1           9   5.6940147806528486E-003           3     1310651           0
</event>
<event>
      6   9999  3.45752E-01  3.40342E+01 -1.00000E+00  1.44379E-01
      21    -1     0     0   501   502  0.000000000E+00  0.000000000E+00  8.317570866E+01  8.317570866E+01  0.000000000E+00  0.00000E+00  9.000E+00
       2    -1     0     0   502     0  0.000000000E+00  0.000000000E+00 -3.044251177E+03  3.044251177E+03  0.000000000E+00  0.00000E+00  9.000E+00
      25     1     1     2     0     0 -3.917307242E+00  3.838303586E+01 -1.304181150E+03  1.310725688E+03  1.249990225E+02  0.00000E+00  9.000E+00
       5     1     1     2   501     0 -5.130625093E+00 -4.140213426E-01  7.939995119E+01  7.970827734E+01  4.750000000E+00  0.00000E+00  9.000E+00
      -5     1     1     2     0   503  1.143718396E+01 -4.018774807E+00 -2.819370863E+02  2.822375645E+02  4.750000000E+00  0.00000E+00  9.000E+00
       2     1     1     2   503     0 -2.389251624E+00 -3.395023971E+01 -1.454357183E+03  1.454755355E+03  2.157918644E-05  0.00000E+00  9.000E+00
#rwgt            1           9   7.3685528795310355E-004           3     1312361           0
</event>
<event>
      6   9999  3.45752E-01  4.36326E+00 -1.00000E+00  2.40287E-01
      21    -1     0     0   501   502  0.000000000E+00  0.000000000E+00  5.100137808E+01  5.100137808E+01  0.000000000E+00  0.00000E+00  9.000E+00
      21    -1     0     0   511   503  0.000000000E+00  0.000000000E+00 -1.403309437E+03  1.403309437E+03  0.000000000E+00  0.00000E+00  9.000E+00
      25     1     1     2     0     0 -9.448063363E+00 -8.162917090E+00 -1.766906368E+02  2.167852497E+02  1.249814555E+02  0.00000E+00  9.000E+00
       5     1     1     2   501     0 -3.010986988E+00  6.128040205E+00  3.020534457E+01  3.132960677E+01  4.750000000E+00  0.00000E+00  9.000E+00
      -5     1     1     2     0   503  1.534968259E+01 -1.233500145E+00 -1.169646960E+03  1.169757970E+03  4.750000000E+00  0.00000E+00  9.000E+00
      21     1     1     2   511   502 -2.890632234E+00  3.268377030E+00 -3.617580642E+01  3.643798860E+01  0.000000000E+00  0.00000E+00  9.000E+00
#rwgt            1           9   1.9543752399116370                3     1314324           0
</event>
<event>
      6   9999  3.45752E-01  8.71789E+00 -1.00000E+00  1.93697E-01
      21    -1     0     0   501   502  0.000000000E+00  0.000000000E+00  1.874442835E+01  1.874442835E+01  0.000000000E+00  0.00000E+00  9.000E+00
       2    -1     0     0   502     0  0.000000000E+00  0.000000000E+00 -2.622771711E+03  2.622771711E+03  0.000000000E+00  0.00000E+00  9.000E+00
      25     1     1     2     0     0  7.619596228E+00  4.331506769E+00 -5.185939340E+02  5.335173615E+02  1.249971458E+02  0.00000E+00  9.000E+00
       5     1     1     2   501     0  1.603895634E+00  1.898952788E+00  1.043198707E+01  1.172891116E+01  4.750000000E+00  0.00000E+00  9.000E+00
      -5     1     1     2     0   503 -1.737542898E+01 -3.140539666E+00 -4.378607689E+02  4.382423803E+02  4.750000000E+00  0.00000E+00  9.000E+00
       2     1     1     2   503     0  8.151937122E+00 -3.089919891E+00 -1.658004567E+03  1.658027486E+03  0.000000000E+00  0.00000E+00  9.000E+00
#rwgt            1           9   2.9304585063685434E-003           3     1320830           0
</event>
<event>
      6   9999  3.45752E-01  2.01181E+01 -1.00000E+00  1.60015E-01
      21    -1     0     0   501   502  0.000000000E+00  0.000000000E+00  6.126997577E+01  6.126997577E+01  0.000000000E+00  0.00000E+00  9.000E+00
      21    -1     0     0   502   511  0.000000000E+00  0.000000000E+00 -1.366394469E+03  1.366394469E+03  0.000000000E+00  0.00000E+00  9.000E+00
      25     1     1     2     0     0 -1.066987331E+01  4.211903193E+01 -1.046266405E+03  1.054602020E+03  1.249966806E+02  0.00000E+00  9.000E+00
       5     1     1     2   501     0 -2.001056656E+01 -5.928617479E+00  5.224676771E+01  5.646112393E+01  4.750000000E+00  0.00000E+00  9.000E+00
      -5     1     1     2     0   503  1.080893439E+01 -3.305027788E+01 -2.450588459E+02  2.475591937E+02  4.750000000E+00  0.00000E+00  9.000E+00
      21     1     1     2   503   511  1.987150549E+01 -3.140136572E+00 -6.604600939E+01  6.904210704E+01  9.536743164E-07  0.00000E+00  9.000E+00
#rwgt            1           9   1.6715383461617954E-003           3     1324113           0
</event>
<event>
      6   9999  3.45752E-01  2.30720E+01 -1.00000E+00  1.55614E-01
      21    -1     0     0   512   502  0.000000000E+00  0.000000000E+00  1.635396259E+01  1.635396259E+01  0.000000000E+00  0.00000E+00  9.000E+00
      21    -1     0     0   502   503  0.000000000E+00  0.000000000E+00 -8.140203956E+02  8.140203956E+02  0.000000000E+00  0.00000E+00  9.000E+00
      25     1     1     2     0     0  3.040958773E+01  2.795536383E+01 -5.292395780E+02  5.453681069E+02  1.250023829E+02  0.00000E+00  9.000E+00
       5     1     1     2   501     0 -1.242705530E+01  1.489354702E+01 -9.772492090E+01  9.974453424E+01  4.750000000E+00  0.00000E+00  9.000E+00
      -5     1     1     2     0   503 -1.830100930E+01 -1.977915878E+01 -1.548976099E+02  1.572958172E+02  4.750000000E+00  0.00000E+00  9.000E+00
      21     1     1     2   512   501  3.184768719E-01 -2.306975206E+01 -1.580432419E+01  2.796589979E+01  5.331201500E-07  0.00000E+00  9.000E+00
#rwgt            1           9   3.7648389753443305E-004           3     1326932           0
</event>
<event>
      6   9999 -3.45752E-01  1.23560E+01 -1.00000E+00  1.78008E-01
      21    -1     0     0   501   502  0.000000000E+00  0.000000000E+00  1.966862809E+01  1.966862809E+01  0.000000000E+00  0.00000E+00  9.000E+00
      21    -1     0     0   502   511  0.000000000E+00  0.000000000E+00 -1.364543699E+03  1.364543699E+03  0.000000000E+00  0.00000E+00  9.000E+00
      25     1     1     2     0     0  1.096031764E+01  4.326273058E+00 -9.678288068E+02  9.759385567E+02  1.249984880E+02  0.00000E+00  9.000E+00
       5     1     1     2   501     0  3.256874349E+00 -4.415733138E+00  1.435926801E+01  1.608903377E+01  4.750000000E+00  0.00000E+00  9.000E+00
      -5     1     1     2     0   503 -2.171352881E+00  2.840647230E+00 -3.085601823E+01  3.142356458E+01  4.750000000E+00  0.00000E+00  9.000E+00
      21     1     1     2   503   511 -1.204583911E+01 -2.751187150E+00 -3.605495142E+02  3.607611723E+02  7.629394531E-06  0.00000E+00  9.000E+00
#rwgt            1           9  -7.7316901972181490E-006           3     1328047           0
</event>
<event>
      6   9999  3.45752E-01  2.27844E+01 -1.00000E+00  1.56006E-01
      21    -1     0     0   501   502  0.000000000E+00  0.000000000E+00  3.347821446E+01  3.347821446E+01  0.000000000E+00  0.00000E+00  9.000E+00
      21    -1     0     0   512   503  0.000000000E+00  0.000000000E+00 -1.262760658E+03  1.262760658E+03  0.000000000E+00  0.00000E+00  9.000E+00
      25     1     1     2     0     0 -5.666565220E-01  3.261933095E+01 -1.095674899E+03  1.103266017E+03  1.250123108E+02  0.00000E+00  9.000E+00
       5     1     1     2   501     0 -1.023482372E+01  3.236130548E+00  2.609441185E+01  2.861302129E+01  4.750000000E+00  0.00000E+00  9.000E+00
      -5     1     1     2     0   503  2.682865205E+00 -1.456653920E+01 -5.211544668E+01  5.438716864E+01  4.750000000E+00  0.00000E+00  9.000E+00
      21     1     1     2   512   502  8.118615038E+00 -2.128892230E+01 -1.075865102E+02  1.099726661E+02  1.348699152E-06  0.00000E+00  9.000E+00
#rwgt            1           9   6.6134368385651449E-004           3     1330551           0
</event>
<event>
      6   9999  3.45752E-01  2.13423E+01 -1.00000E+00  1.58086E-01
      21    -1     0     0   511   502  0.000000000E+00  0.000000000E+00  2.983179774E+02  2.983179774E+02  0.000000000E+00  0.00000E+00  9.000E+00
      21    -1     0     0   502   503  0.000000000E+00  0.000000000E+00 -5.927068967E+02  5.927068967E+02  0.000000000E+00  0.00000E+00  9.000E+00
      25     1     1     2     0     0 -4.002691313E+01  7.594680219E+01 -6.909794300E+01  1.666384391E+02  1.249950924E+02  0.00000E+00  9.000E+00
       5     1     1     2   501     0  8.516407374E+00  3.266366542E+00  7.600364794E+00  1.278774374E+01  4.750000000E+00  0.00000E+00  9.000E+00
      -5     1     1     2     0   503  1.272888635E+01 -8.934953368E+01 -4.674320706E+02  4.760889274E+02  4.750000000E+00  0.00000E+00  9.000E+00
      21     1     1     2   511   501  1.878161941E+01  1.013636495E+01  2.345407294E+02  2.355097639E+02  2.697398305E-06  0.00000E+00  9.000E+00
#rwgt            1           9   25863.331333567494                3     1332644           0
</event>
<event>
      6   9999 -3.45752E-01  5.66185E+00 -1.00000E+00  2.17628E-01
      21    -1     0     0   501   502  0.000000000E+00  0.000000000E+00  1.325910303E+02  1.325910303E+02  0.000000000E+00  0.00000E+00  9.000E+00
      21    -1     0     0   502   512  0.000000000E+00  0.000000000E+00 -2.926701833E+02  2.926701833E+02  0.000000000E+00  0.00000E+00  9.000E+00
      25     1     1     2     0     0  2.236579724E+01  2.140833189E+01 -2.425327036E+02  2.745991699E+02  1.249961849E+02  0.00000E+00  9.000E+00
       5     1     1     2   501     0 -8.802915251E+00 -5.960253816E+00  1.042458626E+02  1.048941291E+02  4.750000000E+00  0.00000E+00  9.000E+00
      -5     1     1     2     0   503 -1.874940184E+01 -1.771888391E+01 -3.311342303E+00  2.643910748E+01  4.750000000E+00  0.00000E+00  9.000E+00
      21     1     1     2   503   512  5.186519850E+00  2.270805841E+00 -1.848096970E+01  1.932880722E+01  2.384185791E-07  0.00000E+00  9.000E+00
#rwgt            1           9  -2.0849419585911640E-002           3     1334771           0
</event>
<event>
      6   9999  3.45752E-01  7.69067E+00 -1.00000E+00  2.00065E-01
      21    -1     0     0   501   502  0.000000000E+00  0.000000000E+00  3.285579479E+02  3.285579479E+02  0.000000000E+00  0.00000E+00  9.000E+00
      21    -1     0     0   511   503  0.000000000E+00  0.000000000E+00 -3.708997958E+02  3.708997958E+02  0.000000000E+00  0.00000E+00  9.000E+00
      25     1     1     2     0     0  8.725405623E+00 -6.672731920E+00  5.690625100E+01  1.378006148E+02  1.250201183E+02  0.00000E+00  9.000E+00
       5     1     1     2   501     0 -1.296196189E+00  1.168002968E+00  2.258270678E+02  2.258837564E+02  4.750000000E+00  0.00000E+00  9.000E+00
      -5     1     1     2     0   503 -5.295953569E+00 -1.884158962E+00  2.751230802E+00  7.856777337E+00  4.750000000E+00  0.00000E+00  9.000E+00
      21     1     1     2   511   502 -2.133255865E+00  7.388887914E+00 -3.278263975E+02  3.279165951E+02  6.607249480E-06  0.00000E+00  9.000E+00
#rwgt            1           9   5.7047026365474550E-004           3     1340290           0
</event>
<event>
      6   9999  3.45752E-01  4.43122E+00 -1.00000E+00  2.38993E-01
      21    -1     0     0   501   512  0.000000000E+00  0.000000000E+00  1.296945348E+01  1.296945348E+01  0.000000000E+00  0.00000E+00  9.000E+00
      21    -1     0     0   502   503  0.000000000E+00  0.000000000E+00 -8.221924931E+02  8.221924931E+02  0.000000000E+00  0.00000E+00  9.000E+00
      25     1     1     2     0     0  4.135369072E+00  3.531488333E+00 -6.494991850E+02  6.614410527E+02  1.250020092E+02  0.00000E+00  9.000E+00
       5     1     1     2   501     0 -4.969142125E-02  7.192203146E-01  4.149546109E+00  6.348305286E+00  4.750000000E+00  0.00000E+00  9.000E+00
      -5     1     1     2     0   503  1.419178516E-01 -5.578544139E+00 -1.625958123E+02  1.627608705E+02  4.750000000E+00  0.00000E+00  9.000E+00
      21     1     1     2   502   512 -4.227595502E+00  1.327835491E+00 -1.277588445E+00  4.611718016E+00  2.250025998E-07  0.00000E+00  9.000E+00
#rwgt            1           9   5.0717884360546334E-002           3     1344015           0
</event>
<event>
      6   9999  3.45752E-01  2.79151E+00 -1.00000E+00  2.85357E-01
      21    -1     0     0   501   502  0.000000000E+00  0.000000000E+00  1.298825690E+01  1.298825690E+01  0.000000000E+00  0.00000E+00  9.000E+00
      21    -1     0     0   502   511  0.000000000E+00  0.000000000E+00 -1.266179564E+03  1.266179564E+03  0.000000000E+00  0.00000E+00  9.000E+00
      25     1     1     2     0     0  1.710929834E+01 -5.817569064E+00 -4.413967377E+02  4.591130826E+02  1.250086811E+02  0.00000E+00  9.000E+00
       5     1     1     2   501     0 -3.668961971E-01  1.484928920E+00  2.260835408E+00  5.478458128E+00  4.750000000E+00  0.00000E+00  9.000E+00
      -5     1     1     2     0   503 -1.945940633E+01  3.691995617E+00 -4.054049434E+02  4.059162844E+02  4.750000000E+00  0.00000E+00  9.000E+00
      21     1     1     2   503   511  2.717004188E+00  6.406445275E-01 -4.086504613E+02  4.086599957E+02  0.000000000E+00  0.00000E+00  9.000E+00
#rwgt            1           9   6.5964433246522086E-004           3     1348849           0
</event>
<event>
      6   9999  3.45752E-01  2.97875E+01 -1.00000E+00  1.48038E-01
      21    -1     0     0   512   502  0.000000000E+00  0.000000000E+00  6.072520843E+01  6.072520843E+01  0.000000000E+00  0.00000E+00  9.000E+00
      21    -1     0     0   502   503  0.000000000E+00  0.000000000E+00 -1.204919618E+03  1.204919618E+03  0.000000000E+00  0.00000E+00  9.000E+00
      25     1     1     2     0     0  2.141708757E+01 -6.474804565E+00 -2.042250789E+02  2.404806533E+02  1.249897877E+02  0.00000E+00  9.000E+00
       5     1     1     2   501     0  6.800441955E+00 -3.485689124E+00  2.291790953E+01  2.462090812E+01  4.750000000E+00  0.00000E+00  9.000E+00
      -5     1     1     2     0   503 -1.503104661E+01 -1.674925997E+01 -9.697113556E+02  9.699840957E+02  4.750000000E+00  0.00000E+00  9.000E+00
      21     1     1     2   512   501 -1.318648292E+01  2.670975365E+01  6.824115532E+00  3.055916924E+01  8.344650269E-07  0.00000E+00  9.000E+00
#rwgt            1           9   176.28815521308258                3     1355002           0
</event>
<event>
      6   9999  3.45752E-01  5.84936E+00 -1.00000E+00  2.15608E-01
      21    -1     0     0   501   502  0.000000000E+00  0.000000000E+00  2.539448385E+02  2.539448385E+02  0.000000000E+00  0.00000E+00  9.000E+00
      21    -1     0     0   511   503  0.000000000E+00  0.000000000E+00 -7.432937218E+02  7.432937218E+02  0.000000000E+00  0.00000E+00  9.000E+00
      25     1     1     2     0     0  3.662237162E+00  9.942486605E-01 -7.282291049E+01  1.447125513E+02  1.249965827E+02  0.00000E+00  9.000E+00
       5     1     1     2   501     0 -6.358455914E+00 -1.993214263E+00  2.154738198E+02  2.156291547E+02  4.750000000E+00  0.00000E+00  9.000E+00
      -5     1     1     2     0   503 -3.135723747E+00  1.450086894E+00 -1.106957013E+00  5.976902981E+00  4.750000000E+00  0.00000E+00  9.000E+00
      21     1     1     2   511   502  5.831942499E+00 -4.511212924E-01 -6.308928356E+02  6.309199514E+02  7.629394531E-06  0.00000E+00  9.000E+00
#rwgt            1           9   4.2611001052952187                3     1356869           0
</event>
<event>
      6   9999  3.45752E-01  3.98580E+01 -1.00000E+00  1.40276E-01
      21    -1     0     0   501   502  0.000000000E+00  0.000000000E+00  1.500675852E+01  1.500675852E+01  0.000000000E+00  0.00000E+00  9.000E+00
      21    -1     0     0   502   512  0.000000000E+00  0.000000000E+00 -1.141571619E+03  1.141571619E+03  0.000000000E+00  0.00000E+00  9.000E+00
      25     1     1     2     0     0 -3.683920109E+01 -6.226562550E+01 -6.799196226E+02  6.950900171E+02  1.250012155E+02  0.00000E+00  9.000E+00
       5     1     1     2   501     0 -1.870724424E+00 -5.470390206E+00  3.700428180E-01  7.491609344E+00  4.750000000E+00  0.00000E+00  9.000E+00
      -5     1     1     2     0   503  1.922725691E+01  3.296413651E+01 -1.837201278E+02  1.877018102E+02  4.750000000E+00  0.00000E+00  9.000E+00
      21     1     1     2   503   512  1.948266861E+01  3.477187920E+01 -2.632951532E+02  2.662949411E+02  0.000000000E+00  0.00000E+00  9.000E+00
#rwgt            1           9   3.5722877211451557E-004           3     1362542           0
</event>
<event>
      6   9999  3.45752E-01  5.69661E+00 -1.00000E+00  2.17246E-01
      21    -1     0     0   501   502  0.000000000E+00  0.000000000E+00  1.398040149E+01  1.398040149E+01  0.000000000E+00  0.00000E+00  9.000E+00
      21    -1     0     0   511   503  0.000000000E+00  0.000000000E+00 -1.035477377E+03  1.035477377E+03  0.000000000E+00  0.00000E+00  9.000E+00
      25     1     1     2     0     0 -2.092231591E+00 -1.947681787E+00 -3.921425112E+02  4.115882491E+02  1.249838660E+02  0.00000E+00  9.000E+00
       5     1     1     2   501     0 -1.815083591E+00 -1.297222910E+00  2.547433614E+00  5.833458129E+00  4.750000000E+00  0.00000E+00  9.000E+00
      -5     1     1     2     0   503  2.546913824E+00 -2.286881119E+00 -4.652523251E+02  4.652891629E+02  4.750000000E+00  0.00000E+00  9.000E+00
      21     1     1     2   511   502  1.360401358E+00  5.531785815E+00 -1.666495730E+02  1.667469086E+02  2.697398305E-06  0.00000E+00  9.000E+00
#rwgt            1           9   1.1955184918242080E-004           3     1363442           0
</event>
<event>
      6   9999  3.45752E-01  4.78287E+00 -1.00000E+00  2.32807E-01
      21    -1     0     0   502   503  0.000000000E+00  0.000000000E+00  5.081570066E+00  5.081570066E+00  0.000000000E+00  0.00000E+00  9.000E+00
       2    -1     0     0   501     0  0.000000000E+00  0.000000000E+00 -1.586216316E+03  1.586216316E+03  0.000000000E+00  0.00000E+00  9.000E+00
      25     1     1     2     0     0 -2.782584408E+00 -2.849019215E+00 -8.466416024E+02  8.558282607E+02  1.249965973E+02  0.00000E+00  9.000E+00
       5     1     1     2   501     0  1.527923742E-02 -2.325213647E-01 -1.967977095E+01  2.024623877E+01  4.750000000E+00  0.00000E+00  9.000E+00
      -5     1     1     2     0   503  1.753530594E+00 -1.592652877E+00 -3.563227647E+01  3.602544988E+01  4.750000000E+00  0.00000E+00  9.000E+00
       2     1     1     2   502     0  1.013774576E+00  4.674193456E+00 -6.791810957E+02  6.791979362E+02  7.629394531E-06  0.00000E+00  9.000E+00
#rwgt            1           9   5.6794240348119029E-004           3     1367532           0
</event>
<event>
      6   9999  3.45752E-01  2.44826E+01 -1.00000E+00  1.53784E-01
      21    -1     0     0   501   511  0.000000000E+00  0.000000000E+00  1.506328334E+01  1.506328334E+01  0.000000000E+00  0.00000E+00  9.000E+00
      21    -1     0     0   502   503  0.000000000E+00  0.000000000E+00 -7.433978271E+02  7.433978271E+02  0.000000000E+00  0.00000E+00  9.000E+00
      25     1     1     2     0     0 -1.560806726E+01  1.736894204E+01 -5.193352712E+02  5.346764921E+02  1.249981414E+02  0.00000E+00  9.000E+00
       5     1     1     2   501     0 -1.598909866E+01  7.960125162E+00 -4.262669974E+01  4.646087493E+01  4.750000000E+00  0.00000E+00  9.000E+00
      -5     1     1     2     0   503  1.239341098E+01 -1.014316949E+01 -1.412873988E+02  1.422714732E+02  4.750000000E+00  0.00000E+00  9.000E+00
      21     1     1     2   502   511  1.920375494E+01 -1.518589771E+01 -2.508517400E+01  3.505227023E+01  7.539457465E-07  0.00000E+00  9.000E+00
#rwgt            1           9   79.166028871405530                3     1370860           0
</event>
<event>
      6   9999  3.45752E-01  4.33429E+01 -1.00000E+00  1.38194E-01
      21    -1     0     0   512   503  0.000000000E+00  0.000000000E+00  3.542438717E+01  3.542438717E+01  0.000000000E+00  0.00000E+00  9.000E+00
      21    -1     0     0   501   502  0.000000000E+00  0.000000000E+00 -9.028051496E+02  9.028051496E+02  0.000000000E+00  0.00000E+00  9.000E+00
      25     1     1     2     0     0 -3.256184972E+01 -4.643776397E+01 -6.274640260E+02  6.423019269E+02  1.249956851E+02  0.00000E+00  9.000E+00
       5     1     1     2   501     0  6.209818314E+00  2.327381250E+01 -1.112157720E+02  1.138935583E+02  4.750000000E+00  0.00000E+00  9.000E+00
      -5     1     1     2     0   503  4.895474208E+01 -1.381878868E+01 -1.289378617E+02  1.386905201E+02  4.750000000E+00  0.00000E+00  9.000E+00
      21     1     1     2   512   502 -2.260271067E+01  3.698274015E+01  2.368972764E-01  4.334353146E+01  6.585445080E-08  0.00000E+00  9.000E+00
#rwgt            1           9   3.2516817975517030E-004           3     1372398           0
</event>
<event>
      6   9999  3.45752E-01  4.37613E+00 -1.00000E+00  2.40039E-01
      21    -1     0     0   501   502  0.000000000E+00  0.000000000E+00  6.797829737E+00  6.797829737E+00  0.000000000E+00  0.00000E+00  9.000E+00
      21    -1     0     0   511   503  0.000000000E+00  0.000000000E+00 -7.296694382E+02  7.296694382E+02  0.000000000E+00  0.00000E+00  9.000E+00
      25     1     1     2     0     0 -2.746127180E+00 -3.411600360E+00 -6.594336029E+02  6.711951061E+02  1.250240522E+02  0.00000E+00  9.000E+00
       5     1     1     2   501     0  3.275050638E-01  3.912359411E-01 -1.083915718E+01  1.184525869E+01  4.750000000E+00  0.00000E+00  9.000E+00
      -5     1     1     2     0   503  3.386577038E-01 -8.298647184E-01 -2.265319219E+01  2.316318158E+01  4.750000000E+00  0.00000E+00  9.000E+00
      21     1     1     2   511   502  2.079964412E+00  3.850229137E+00 -2.994565624E+01  3.026372158E+01  3.371747881E-07  0.00000E+00  9.000E+00
#rwgt            1           9  0.14262167881465296                3     1373603           0
</event>
<event>
      6   9999  3.45752E-01  2.54033E+01 -1.00000E+00  1.52667E-01
      21    -1     0     0   502   503  0.000000000E+00  0.000000000E+00  3.923229102E+01  3.923229102E+01  0.000000000E+00  0.00000E+00  9.000E+00
      21    -1     0     0   512   502  0.000000000E+00  0.000000000E+00 -1.709388863E+03  1.709388863E+03  0.000000000E+00  0.00000E+00  9.000E+00
      25     1     1     2     0     0 -2.870342803E+01  1.344553236E+02 -2.246063742E+02  2.915070843E+02  1.250049441E+02  0.00000E+00  9.000E+00
       5     1     1     2   501     0  8.354780644E+00 -1.243700050E+02 -9.508135678E+02  9.589612629E+02  4.750000000E+00  0.00000E+00  9.000E+00
      -5     1     1     2     0   503 -4.610457649E+00 -5.355804537E+00 -1.181544061E+01  1.456393143E+01  4.750000000E+00  0.00000E+00  9.000E+00
      21     1     1     2   512   501  2.495910504E+01 -4.729514126E+00 -4.829211893E+02  4.835888753E+02  0.000000000E+00  0.00000E+00  9.000E+00
#rwgt            1           9   3.2144272209611822E-003           3     1377628           0
</event>
<event>
      6   9999  3.45752E-01  1.33038E+01 -1.00000E+00  1.75015E-01
      21    -1     0     0   501   502  0.000000000E+00  0.000000000E+00  9.652601016E+01  9.652601016E+01  0.000000000E+00  0.00000E+00  9.000E+00
      21    -1     0     0   502   511  0.000000000E+00  0.000000000E+00 -9.562034509E+01  9.562034509E+01  0.000000000E+00  0.00000E+00  9.000E+00
      25     1     1     2     0     0 -1.053553131E+01 -2.742175568E+01 -3.003364898E+01  1.318659062E+02  1.249945881E+02  0.00000E+00  9.000E+00
       5     1     1     2   501     0  7.542804806E+00  1.351882744E+00  2.569079260E+01  2.722683999E+01  4.750000000E+00  0.00000E+00  9.000E+00
      -5     1     1     2     0   503  1.626999037E+00  1.283640274E+01  1.187275572E+01  1.819189901E+01  4.750000000E+00  0.00000E+00  9.000E+00
      21     1     1     2   503   511  1.365727470E+00  1.323347020E+01 -6.624234270E+00  1.486171002E+01  3.039252468E-07  0.00000E+00  9.000E+00
#rwgt            1           9   8.0235186902883390E-003           3     1379610           0
</event>
<event>
      6   9999 -3.45752E-01  9.48215E+00 -1.00000E+00  1.89659E-01
      21    -1     0     0   512   502  0.000000000E+00  0.000000000E+00  2.302519749E+01  2.302519749E+01  0.000000000E+00  0.00000E+00  9.000E+00
      21    -1     0     0   502   503  0.000000000E+00  0.000000000E+00 -1.155723637E+03  1.155723637E+03  0.000000000E+00  0.00000E+00  9.000E+00
      25     1     1     2     0     0 -1.477239316E+01 -1.085001163E-01 -1.107382353E+03  1.114512523E+03  1.249970116E+02  0.00000E+00  9.000E+00
       5     1     1     2   501     0  5.507639765E+00  2.341539789E+00  1.627334555E+01  1.797779685E+01  4.750000000E+00  0.00000E+00  9.000E+00
      -5     1     1     2     0   503  4.554133467E+00  5.996247769E+00 -2.995241289E+01  3.124747441E+01  4.750000000E+00  0.00000E+00  9.000E+00
      21     1     1     2   512   501  4.710619927E+00 -8.229287442E+00 -1.163701914E+01  1.501104015E+01  4.129530925E-07  0.00000E+00  9.000E+00
#rwgt            1           9 -0.41359078876595101                3     1381451           0
</event>
<event>
      6   9999  3.45752E-01  2.75744E+01 -1.00000E+00  1.50246E-01
      21    -1     0     0   501   502  0.000000000E+00  0.000000000E+00  4.253924307E+01  4.253924307E+01  0.000000000E+00  0.00000E+00  9.000E+00
      21    -1     0     0   511   503  0.000000000E+00  0.000000000E+00 -1.626210216E+03  1.626210216E+03  0.000000000E+00  0.00000E+00  9.000E+00
      25     1     1     2     0     0 -8.936963564E+01  1.353913195E+02 -2.903335450E+02  3.552961155E+02  1.249960847E+02  0.00000E+00  9.000E+00
       5     1     1     2   501     0 -2.618632813E+00  1.126291225E+00  2.959338720E+00  6.280601515E+00  4.750000000E+00  0.00000E+00  9.000E+00
      -5     1     1     2     0   503  6.851215761E+01 -1.220531400E+02 -1.037049326E+03  1.046462972E+03  4.750000000E+00  0.00000E+00  9.000E+00
      21     1     1     2   511   502  2.347611084E+01 -1.446447070E+01 -2.592474399E+02  2.607097693E+02  3.814697266E-06  0.00000E+00  9.000E+00
#rwgt            1           9   1.9829188433498168E-003           3     1385089           0
</event>
<event>
      6   9999  3.45752E-01  7.90331E+00 -1.00000E+00  1.98643E-01
      21    -1     0     0   512   502  0.000000000E+00  0.000000000E+00  4.718124022E+01  4.718124022E+01  0.000000000E+00  0.00000E+00  9.000E+00
      21    -1     0     0   502   503  0.000000000E+00  0.000000000E+00 -6.038116842E+02  6.038116842E+02  0.000000000E+00  0.00000E+00  9.000E+00
      25     1     1     2     0     0 -4.992308971E+00 -4.636627129E+00 -5.735199301E+02  5.870247457E+02  1.250060813E+02  0.00000E+00  9.000E+00
       5     1     1     2   501     0  5.766012235E-01  4.180851605E+00  3.752967432E+01  3.806377469E+01  4.750000000E+00  0.00000E+00  9.000E+00
      -5     1     1     2     0   503 -1.992745011E+00  5.081149024E+00 -1.318433887E+01  1.503922869E+01  4.750000000E+00  0.00000E+00  9.000E+00
      21     1     1     2   512   501  6.408452758E+00 -4.625373501E+00 -7.455849334E+00  1.086517538E+01  0.000000000E+00  0.00000E+00  9.000E+00
#rwgt            1           9   1.3977292879385354E-004           3     1387812           0
</event>
<event>
      6   9999  3.45752E-01  4.74790E+00 -1.00000E+00  2.33386E-01
      21    -1     0     0   511   502  0.000000000E+00  0.000000000E+00  2.215813881E+01  2.215813881E+01  0.000000000E+00  0.00000E+00  9.000E+00
      21    -1     0     0   502   503  0.000000000E+00  0.000000000E+00 -6.721185097E+02  6.721185097E+02  0.000000000E+00  0.00000E+00  9.000E+00
      25     1     1     2     0     0  1.200289161E+01  7.489374515E-01 -6.342766101E+02  6.465884148E+02  1.250005190E+02  0.00000E+00  9.000E+00
       5     1     1     2   501     0 -2.473983922E-02 -2.911672506E-01 -1.518429761E+00  4.995349774E+00  4.750000000E+00  0.00000E+00  9.000E+00
      -5     1     1     2     0   503 -7.756572237E+00 -2.630522450E+00 -2.721041054E+01  2.881064045E+01  4.750000000E+00  0.00000E+00  9.000E+00
      21     1     1     2   511   501 -4.221579536E+00  2.172752249E+00  1.304507947E+01  1.388224349E+01  7.907449699E-07  0.00000E+00  9.000E+00
#rwgt            1           9   6.0804197643705212E-004           3     1391496           0
</event>
<event>
      6   9999 -3.45752E-01  1.25097E+01 -1.00000E+00  1.77500E-01
      21    -1     0     0   501   512  0.000000000E+00  0.000000000E+00  4.981159144E+01  4.981159144E+01  0.000000000E+00  0.00000E+00  9.000E+00
      21    -1     0     0   502   503  0.000000000E+00  0.000000000E+00 -4.784549759E+02  4.784549759E+02  0.000000000E+00  0.00000E+00  9.000E+00
      25     1     1     2     0     0  6.817122565E+00  4.054343212E+01 -4.299313913E+02  4.496185483E+02  1.250023786E+02  0.00000E+00  9.000E+00
       5     1     1     2   501     0  1.311947276E+00  1.210161089E+00  2.758835547E+01  2.805112392E+01  4.750000000E+00  0.00000E+00  9.000E+00
      -5     1     1     2     0   503 -7.258848426E+00 -2.927420862E+01 -1.650172154E+01  3.470647612E+01  4.750000000E+00  0.00000E+00  9.000E+00
      21     1     1     2   502   512 -8.702214163E-01 -1.247938459E+01 -9.798627085E+00  1.589041906E+01  0.000000000E+00  0.00000E+00  9.000E+00
#rwgt            1           9  -4.6566742151977651E-005           3     1395007           0
</event>
<event>
      6   9999  3.45752E-01  3.23477E+01 -1.00000E+00  1.45752E-01
      21    -1     0     0   501   502  0.000000000E+00  0.000000000E+00  3.957284613E+01  3.957284613E+01  0.000000000E+00  0.00000E+00  9.000E+00
      21    -1     0     0   511   503  0.000000000E+00  0.000000000E+00 -1.196623416E+03  1.196623416E+03  0.000000000E+00  0.00000E+00  9.000E+00
      25     1     1     2     0     0 -1.750304481E+01  1.541722936E+01 -1.014726062E+03  1.022662629E+03  1.250032978E+02  0.00000E+00  9.000E+00
       5     1     1     2   501     0 -9.246934667E+00  3.143609274E+00  3.184382083E+01  3.364490310E+01  4.750000000E+00  0.00000E+00  9.000E+00
      -5     1     1     2     0   503  3.173067879E+00  3.586444317E+00 -8.069637670E+01  8.097776642E+01  4.750000000E+00  0.00000E+00  9.000E+00
      21     1     1     2   511   502  2.357691160E+01 -2.214728295E+01 -9.347195271E+01  9.891096424E+01  0.000000000E+00  0.00000E+00  9.000E+00
#rwgt            1           9  0.23314266499662042                3     1397541           0
</event>
<event>
      6   9999  3.45752E-01  1.24703E+01 -1.00000E+00  1.77630E-01
      21    -1     0     0   501   502  0.000000000E+00  0.000000000E+00  1.389897480E+03  1.389897480E+03  0.000000000E+00  0.00000E+00  9.000E+00
      21    -1     0     0   512   503  0.000000000E+00  0.000000000E+00 -2.012768256E+02  2.012768256E+02  0.000000000E+00  0.00000E+00  9.000E+00
      25     1     1     2     0     0 -4.809542627E+00  1.075583893E+01  1.526627507E+02  1.976557315E+02  1.249922116E+02  0.00000E+00  9.000E+00
       5     1     1     2   501     0  7.746989050E+00 -1.017713412E+00  1.207817754E+03  1.207852367E+03  4.750000000E+00  0.00000E+00  9.000E+00
      -5     1     1     2     0   503  1.972127754E+00  1.725044637E+00  5.583738541E+00  7.784966472E+00  4.750000000E+00  0.00000E+00  9.000E+00
      21     1     1     2   512   502 -4.909574177E+00 -1.146317016E+01 -1.774435893E+02  1.778812401E+02  1.907348633E-06  0.00000E+00  9.000E+00
#rwgt            1           9   5.9233671954055414E-005           3     1399072           0
</event>
<event>
      6   9999 -3.45752E-01  3.92054E+00 -1.00000E+00  2.49668E-01
      21    -1     0     0   501   502  0.000000000E+00  0.000000000E+00  2.772173948E+01  2.772173948E+01  0.000000000E+00  0.00000E+00  9.000E+00
      21    -1     0     0   502   511  0.000000000E+00  0.000000000E+00 -1.143319777E+03  1.143319777E+03  0.000000000E+00  0.00000E+00  9.000E+00
      25     1     1     2     0     0  5.508665196E+00  1.903871151E+00 -1.089903898E+03  1.097064302E+03  1.250024195E+02  0.00000E+00  9.000E+00
       5     1     1     2   501     0 -1.494692999E-01 -1.653617563E-01  2.078221249E+01  2.131929975E+01  4.750000000E+00  0.00000E+00  9.000E+00
      -5     1     1     2     0   503 -1.712756170E+00 -3.178676769E+00  4.988940618E-02  5.966783778E+00  4.750000000E+00  0.00000E+00  9.000E+00
      21     1     1     2   503   511 -3.646439726E+00  1.440167374E+00 -4.652624193E+01  4.669113185E+01  6.743495762E-07  0.00000E+00  9.000E+00
#rwgt            1           9  -3.1083315891247443E-004           3     1402348           0
</event>
<event>
      6   9999  3.45752E-01  1.04987E+01 -1.00000E+00  1.84995E-01
      21    -1     0     0   501   502  0.000000000E+00  0.000000000E+00  5.777543159E+02  5.777543159E+02  0.000000000E+00  0.00000E+00  9.000E+00
      21    -1     0     0   502   512  0.000000000E+00  0.000000000E+00 -2.147091198E+02  2.147091198E+02  0.000000000E+00  0.00000E+00  9.000E+00
      25     1     1     2     0     0 -1.746250493E+01 -3.411730806E+00  1.531504326E+02  1.984815200E+02  1.249931189E+02  0.00000E+00  9.000E+00
       5     1     1     2   501     0  3.174207793E-01 -5.872149499E+00  3.814339649E+02  3.815088662E+02  4.750000000E+00  0.00000E+00  9.000E+00
      -5     1     1     2     0   503  1.651490981E+01 -1.195866947E+00  1.666996836E+01  2.397128885E+01  4.750000000E+00  0.00000E+00  9.000E+00
      21     1     1     2   503   512  6.301743364E-01  1.047974725E+01 -1.882091697E+02  1.885017607E+02  2.697398305E-06  0.00000E+00  9.000E+00
#rwgt            1           9   2.3465045559700606E-002           3     1408489           0
</event>
<event>
      6   9999 -3.45752E-01  2.40522E+01 -1.00000E+00  1.54326E-01
      21    -1     0     0   511   502  0.000000000E+00  0.000000000E+00  1.392205594E+02  1.392205594E+02  0.000000000E+00  0.00000E+00  9.000E+00
      21    -1     0     0   502   503  0.000000000E+00  0.000000000E+00 -9.212697168E+02  9.212697168E+02  0.000000000E+00  0.00000E+00  9.000E+00
      25     1     1     2     0     0 -7.188177930E+01 -9.197477441E+00 -8.748345284E+02  8.866858946E+02  1.249993594E+02  0.00000E+00  9.000E+00
       5     1     1     2   501     0  1.450055767E+00 -1.164725593E+01  9.902120752E+01  9.982746751E+01  4.750000000E+00  0.00000E+00  9.000E+00
      -5     1     1     2     0   503  4.761791257E+01  1.322631771E+01 -3.549384151E+00  4.977511131E+01  4.750000000E+00  0.00000E+00  9.000E+00
      21     1     1     2   511   501  2.281381096E+01  7.618415665E+00 -2.686452362E+00  2.420180271E+01  4.777675731E-07  0.00000E+00  9.000E+00
#rwgt            1           9  -3.0479027274883728E-004           3     1411492           0
</event>
<event>
      6   9999 -3.45752E-01  1.71159E+00 -1.00000E+00  3.61457E-01
      21    -1     0     0   501   512  0.000000000E+00  0.000000000E+00  1.168306944E+01  1.168306944E+01  0.000000000E+00  0.00000E+00  9.000E+00
      21    -1     0     0   502   503  0.000000000E+00  0.000000000E+00 -8.123383009E+02  8.123383009E+02  0.000000000E+00  0.00000E+00  9.000E+00
      25     1     1     2     0     0 -3.216930771E-01 -6.198501747E+00 -7.563839051E+02  7.666702101E+02  1.250122965E+02  0.00000E+00  9.000E+00
       5     1     1     2   501     0 -2.336067468E-01  2.020121920E+00  4.520680232E+00  6.865458065E+00  4.750000000E+00  0.00000E+00  9.000E+00
      -5     1     1     2     0   503  1.236851235E+00  2.608334650E+00 -4.841506658E+01  4.873309330E+01  4.750000000E+00  0.00000E+00  9.000E+00
      21     1     1     2   502   512 -6.815514112E-01  1.570045177E+00 -3.769400676E-01  1.752608912E+00  4.148307713E-08  0.00000E+00  9.000E+00
#rwgt            1           9  -6.4575721536582834E-006           3     1414123           0
</event>
<event>
      6   9999 -3.45752E-01  1.40102E+01 -1.00000E+00  1.72981E-01
      21    -1     0     0   501   511  0.000000000E+00  0.000000000E+00  1.305219575E+01  1.305219575E+01  0.000000000E+00  0.00000E+00  9.000E+00
      21    -1     0     0   502   503  0.000000000E+00  0.000000000E+00 -8.637784750E+02  8.637784750E+02  0.000000000E+00  0.00000E+00  9.000E+00
      25     1     1     2     0     0  1.891214447E+01  1.364057340E+01 -7.849368335E+02  7.951693184E+02  1.249987115E+02  0.00000E+00  9.000E+00
       5     1     1     2   501     0 -1.396116397E+00 -2.318941475E+01 -2.077439138E+01  3.152516351E+01  4.750000000E+00  0.00000E+00  9.000E+00
      -5     1     1     2     0   503 -5.617970424E+00  2.151330255E+00 -1.160913237E+01  1.391130000E+01  4.750000000E+00  0.00000E+00  9.000E+00
      21     1     1     2   502   511 -1.189805765E+01  7.397511093E+00 -3.340592202E+01  3.622488885E+01  6.743495762E-07  0.00000E+00  9.000E+00
#rwgt            1           9  -6.4197607084836675E-005           3     1422658           0
</event>
<event>
      6   9999  3.45752E-01  1.64134E+01 -1.00000E+00  1.67051E-01
      21    -1     0     0   501   502  0.000000000E+00  0.000000000E+00  3.408568831E+03  3.408568831E+03  0.000000000E+00  0.00000E+00  9.000E+00
       2    -1     0     0   502     0  0.000000000E+00  0.000000000E+00 -1.118306224E+01  1.118306224E+01  0.000000000E+00  0.00000E+00  9.000E+00
      25     1     1     2     0     0  5.666627262E+00 -1.170655913E+01  2.969521898E+03  2.972179868E+03  1.249948479E+02  0.00000E+00  9.000E+00
       5     1     1     2   501     0  4.513774411E-01 -8.512763264E-01  2.820391548E+02  2.820807965E+02  4.750000000E+00  0.00000E+00  9.000E+00
      -5     1     1     2     0   503 -1.630700778E+00 -3.230224293E+00  1.487068879E+02  1.488267266E+02  4.750000000E+00  0.00000E+00  9.000E+00
       2     1     1     2   503     0 -4.487303925E+00  1.578805975E+01 -2.882171523E+00  1.666450239E+01  1.785654089E-06  0.00000E+00  9.000E+00
#rwgt            1           9   1.2331861342290015E-004           3     1424666           0
</event>
<event>
      6   9999  3.45752E-01  8.50127E+00 -1.00000E+00  1.94941E-01
      21    -1     0     0   502   503  0.000000000E+00  0.000000000E+00  8.861629640E+00  8.861629640E+00  0.000000000E+00  0.00000E+00  9.000E+00
      21    -1     0     0   501   511  0.000000000E+00  0.000000000E+00 -8.921943460E+02  8.921943460E+02  0.000000000E+00  0.00000E+00  9.000E+00
      25     1     1     2     0     0 -1.421430796E+01  1.469782058E+01 -7.058209502E+02  7.171003907E+02  1.250267334E+02  0.00000E+00  9.000E+00
       5     1     1     2   501     0 -2.175211568E-01  1.818704844E-01 -3.388183262E+00  5.841461987E+00  4.750000000E+00  0.00000E+00  9.000E+00
      -5     1     1     2     0   503  1.506565853E+01 -6.402078869E+00 -3.711140654E+01  4.083845830E+01  4.750000000E+00  0.00000E+00  9.000E+00
      21     1     1     2   502   511 -6.338294134E-01 -8.477612195E+00 -1.370121763E+02  1.372756647E+02  1.907348633E-06  0.00000E+00  9.000E+00
#rwgt            1           9   4.5072126286936574E-005           3     1426998           0
</event>
<event>
      6   9999  3.45752E-01  5.15023E+00 -1.00000E+00  2.23734E-01
      21    -1     0     0   512   502  0.000000000E+00  0.000000000E+00  5.111940485E+01  5.111940485E+01  0.000000000E+00  0.00000E+00  9.000E+00
      21    -1     0     0   502   503  0.000000000E+00  0.000000000E+00 -1.810505248E+03  1.810505248E+03  0.000000000E+00  0.00000E+00  9.000E+00
      25     1     1     2     0     0 -2.598420104E+01 -1.143284219E+01 -8.477847466E+02  8.574198419E+02  1.249956804E+02  0.00000E+00  9.000E+00
       5     1     1     2   501     0  3.516320881E-01 -6.437890283E-01  1.399890442E+01  1.480101126E+01  4.750000000E+00  0.00000E+00  9.000E+00
      -5     1     1     2     0   503  2.174628743E+01  1.545623445E+01 -9.571010005E+02  9.574845606E+02  4.750000000E+00  0.00000E+00  9.000E+00
      21     1     1     2   512   501  3.886281521E+00 -3.379603231E+00  3.150099912E+01  3.191923946E+01  2.050954167E-06  0.00000E+00  9.000E+00
#rwgt            1           9   4.5794098782093652E-002           3     1429508           0
</event>
<event>
      6   9999  3.45752E-01  7.44038E+00 -1.00000E+00  2.01819E-01
      21    -1     0     0   511   502  0.000000000E+00  0.000000000E+00  9.038507281E+02  9.038507281E+02  0.000000000E+00  0.00000E+00  9.000E+00
      21    -1     0     0   502   503  0.000000000E+00  0.000000000E+00 -8.725822856E+02  8.725822856E+02  0.000000000E+00  0.00000E+00  9.000E+00
      25     1     1     2     0     0 -1.243001398E+01  2.428246186E+00 -8.248392519E+02  8.343532732E+02  1.250007656E+02  0.00000E+00  9.000E+00
       5     1     1     2   501     0 -1.371853003E-01  6.728632389E-02 -7.054815348E+00  8.506248695E+00  4.750000000E+00  0.00000E+00  9.000E+00
      -5     1     1     2     0   503  6.282786860E+00 -6.478665917E+00 -3.445116404E+01  3.592898171E+01  4.750000000E+00  0.00000E+00  9.000E+00
      21     1     1     2   511   501  6.284412425E+00  3.983133407E+00  8.976136738E+02  8.976445101E+02  1.078959322E-05  0.00000E+00  9.000E+00
#rwgt            1           9   8.6273037463575105E-004           3     1434531           0
</event>
<event>
      6   9999  3.45752E-01  9.01780E+00 -1.00000E+00  1.92051E-01
      21    -1     0     0   501   502  0.000000000E+00  0.000000000E+00  9.329234095E+02  9.329234095E+02  0.000000000E+00  0.00000E+00  9.000E+00
      21    -1     0     0   512   503  0.000000000E+00  0.000000000E+00 -1.003129997E+02  1.003129997E+02  0.000000000E+00  0.00000E+00  9.000E+00
      25     1     1     2     0     0  1.155371664E+00  3.626586363E+00  3.910762965E+01  1.310316092E+02  1.250015556E+02  0.00000E+00  9.000E+00
       5     1     1     2   501     0 -1.456374947E+00 -4.148841616E-01  8.273462630E+02  8.273612842E+02  4.750000000E+00  0.00000E+00  9.000E+00
      -5     1     1     2     0   503 -8.392165583E+00 -8.138785857E-01  1.895390780E+01  2.128154042E+01  4.750000000E+00  0.00000E+00  9.000E+00
      21     1     1     2   512   502  8.693168866E+00 -2.397823616E+00 -5.279739067E+01  5.356197536E+01  2.132480600E-06  0.00000E+00  9.000E+00
#rwgt            1           9   5.8306783177009859E-003           3     1437065           0
</event>
<event>
      6   9999 -3.45752E-01  4.69716E+00 -1.00000E+00  2.34241E-01
      21    -1     0     0   501   511  0.000000000E+00  0.000000000E+00  1.091246516E+02  1.091246516E+02  0.000000000E+00  0.00000E+00  9.000E+00
      21    -1     0     0   502   503  0.000000000E+00  0.000000000E+00 -8.893014197E+02  8.893014197E+02  0.000000000E+00  0.00000E+00  9.000E+00
      25     1     1     2     0     0  4.114353078E+01 -1.935346901E+01 -3.243027054E+02  3.505214207E+02  1.250026991E+02  0.00000E+00  9.000E+00
       5     1     1     2   501     0 -1.329753548E+01  2.228378876E+01 -1.618021299E+02  1.639386576E+02  4.750000000E+00  0.00000E+00  9.000E+00
      -5     1     1     2     0   503 -2.389425978E+01 -3.912113263E-01 -3.885790723E+02  3.893421973E+02  4.750000000E+00  0.00000E+00  9.000E+00
      21     1     1     2   502   511 -3.951735522E+00 -2.539108422E+00  9.450713955E+01  9.462379569E+01  2.336015456E-06  0.00000E+00  9.000E+00
#rwgt            1           9 -0.11264186731542265                3     1440850           0
</event>
<event>
      6   9999  3.45752E-01  5.80696E+00 -1.00000E+00  2.16055E-01
      21    -1     0     0   501   512  0.000000000E+00  0.000000000E+00  4.123166413E+01  4.123166413E+01  0.000000000E+00  0.00000E+00  9.000E+00
      21    -1     0     0   502   503  0.000000000E+00  0.000000000E+00 -1.132251093E+03  1.132251093E+03  0.000000000E+00  0.00000E+00  9.000E+00
      25     1     1     2     0     0  3.411468423E+01  1.192012037E+02 -5.991571687E+02  6.244904071E+02  1.250048685E+02  0.00000E+00  9.000E+00
       5     1     1     2   501     0 -2.454776436E+00 -2.952266912E-01  9.876029423E+00  1.123439110E+01  4.750000000E+00  0.00000E+00  9.000E+00
      -5     1     1     2     0   503 -2.708889017E+01 -1.153245510E+02 -5.122272449E+02  5.257688398E+02  4.750000000E+00  0.00000E+00  9.000E+00
      21     1     1     2   502   512 -4.571017626E+00 -3.581426018E+00  1.048895483E+01  1.198911956E+01  4.616955931E-07  0.00000E+00  9.000E+00
#rwgt            1           9   3.8552254091931635E-004           3     1445314           0
</event>
<event>
      6   9999  3.45752E-01  1.40025E+01 -1.00000E+00  1.73003E-01
      21    -1     0     0   511   503  0.000000000E+00  0.000000000E+00  1.163472621E+02  1.163472621E+02  0.000000000E+00  0.00000E+00  9.000E+00
      21    -1     0     0   501   502  0.000000000E+00  0.000000000E+00 -9.279289882E+02  9.279289882E+02  0.000000000E+00  0.00000E+00  9.000E+00
      25     1     1     2     0     0 -5.520871999E+01  7.742678204E-01 -3.026954125E+02  3.321126905E+02  1.250028967E+02  0.00000E+00  9.000E+00
       5     1     1     2   501     0 -7.551497628E+00  2.120698925E+00 -5.831436826E+01  5.903092855E+01  4.750000000E+00  0.00000E+00  9.000E+00
      -5     1     1     2     0   503  5.411177847E+01  8.117521460E+00 -5.499939147E+02  5.527294523E+02  4.750000000E+00  0.00000E+00  9.000E+00
      21     1     1     2   511   502  8.648439149E+00 -1.101248821E+01  9.942196922E+01  1.004031790E+02  4.473129043E-06  0.00000E+00  9.000E+00
#rwgt            1           9   5.5836284022201649E-004           3     1450493           0
</event>
<event>
      6   9999  3.45752E-01  6.04065E+00 -1.00000E+00  2.13650E-01
      21    -1     0     0   501   512  0.000000000E+00  0.000000000E+00  9.022736796E+01  9.022736796E+01  0.000000000E+00  0.00000E+00  9.000E+00
      21    -1     0     0   502   503  0.000000000E+00  0.000000000E+00 -2.261319451E+03  2.261319451E+03  0.000000000E+00  0.00000E+00  9.000E+00
      25     1     1     2     0     0 -1.074856802E+01 -5.064225925E+00 -2.219902426E+03  2.223450691E+03  1.250000495E+02  0.00000E+00  9.000E+00
       5     1     1     2   501     0  5.290093987E+00  3.113713744E+00  9.874099748E+00  1.255948460E+01  4.750000000E+00  0.00000E+00  9.000E+00
      -5     1     1     2     0   503 -4.204465600E-01  3.338951333E+00 -3.795986462E+01  3.840363516E+01  4.750000000E+00  0.00000E+00  9.000E+00
      21     1     1     2   502   512  5.878920591E+00 -1.388439152E+00  7.689610854E+01  7.713300836E+01  4.672030912E-06  0.00000E+00  9.000E+00
#rwgt            1           9   3.2778271336551694E-002           3     1452669           0
</event>
<event>
      6   9999  3.45752E-01  8.55225E+00 -1.00000E+00  1.94644E-01
      21    -1     0     0   501   511  0.000000000E+00  0.000000000E+00  7.822847314E+00  7.822847314E+00  0.000000000E+00  0.00000E+00  9.000E+00
      21    -1     0     0   502   503  0.000000000E+00  0.000000000E+00 -7.583267799E+02  7.583267799E+02  0.000000000E+00  0.00000E+00  9.000E+00
      25     1     1     2     0     0 -5.574903459E-01 -1.237194403E+01 -6.904780721E+02  7.018112245E+02  1.250026037E+02  0.00000E+00  9.000E+00
       5     1     1     2   501     0 -3.143310824E-01 -7.422742930E-01 -7.175288502E+00  8.642744948E+00  4.750000000E+00  0.00000E+00  9.000E+00
      -5     1     1     2     0   503 -3.071267333E+00  5.525215634E+00 -1.576623545E+01  1.763795258E+01  4.750000000E+00  0.00000E+00  9.000E+00
      21     1     1     2   502   511  3.943088761E+00  7.589002687E+00 -3.708433651E+01  3.805770521E+01  4.768371582E-07  0.00000E+00  9.000E+00
#rwgt            1           9   8.2955401502858461E-005           3     1457151           0
</event>
<event>
      6   9999  3.45752E-01  3.61300E+00 -1.00000E+00  2.57367E-01
      21    -1     0     0   512   502  0.000000000E+00  0.000000000E+00  4.241572150E+01  4.241572150E+01  0.000000000E+00  0.00000E+00  9.000E+00
      21    -1     0     0   502   503  0.000000000E+00  0.000000000E+00 -1.864984186E+03  1.864984186E+03  0.000000000E+00  0.00000E+00  9.000E+00
      25     1     1     2     0     0 -3.012848032E+01 -3.536115348E+01 -1.611017753E+03  1.616530536E+03  1.250385408E+02  0.00000E+00  9.000E+00
       5     1     1     2   501     0 -2.094239051E-01 -2.863307037E-01 -2.723377871E+00  5.486814255E+00  4.750000000E+00  0.00000E+00  9.000E+00
      -5     1     1     2     0   503  2.953141818E+01  3.212564567E+01 -2.450651052E+02  2.489651182E+02  4.750000000E+00  0.00000E+00  9.000E+00
      21     1     1     2   512   501  8.064860470E-01  3.521838513E+00  3.623777171E+01  3.641743902E+01  2.185142372E-06  0.00000E+00  9.000E+00
#rwgt            1           9   7.6230387992496068E-002           3     1459437           0
</event>
<event>
      6   9999 -3.45752E-01  6.69872E+00 -1.00000E+00  2.07604E-01
      21    -1     0     0   511   502  0.000000000E+00  0.000000000E+00  9.962671556E+00  9.962671556E+00  0.000000000E+00  0.00000E+00  9.000E+00
      21    -1     0     0   502   503  0.000000000E+00  0.000000000E+00 -7.860885490E+02  7.860885490E+02  0.000000000E+00  0.00000E+00  9.000E+00
      25     1     1     2     0     0  4.160994085E+00  1.127984469E+01 -7.057312232E+02  7.168163261E+02  1.249981488E+02  0.00000E+00  9.000E+00
       5     1     1     2   501     0 -3.569406532E-01 -8.787835757E-01 -3.705362875E-02  4.843917854E+00  4.750000000E+00  0.00000E+00  9.000E+00
      -5     1     1     2     0   503 -9.727266546E+00 -1.352970452E+01 -5.411097790E+01  5.681754173E+01  4.750000000E+00  0.00000E+00  9.000E+00
      21     1     1     2   511   501  5.923213114E+00  3.128643411E+00 -1.624662268E+01  1.757343482E+01  2.384185791E-07  0.00000E+00  9.000E+00
#rwgt            1           9  -8.2084518555391114E-005           3     1464338           0
</event>
<event>
      6   9999  3.45752E-01  5.31030E+00 -1.00000E+00  2.21722E-01
      21    -1     0     0   512   502  0.000000000E+00  0.000000000E+00  1.957257081E+01  1.957257081E+01  0.000000000E+00  0.00000E+00  9.000E+00
      21    -1     0     0   502   503  0.000000000E+00  0.000000000E+00 -7.672706595E+02  7.672706595E+02  0.000000000E+00  0.00000E+00  9.000E+00
      25     1     1     2     0     0  1.574134219E+01  8.495301046E+00 -5.944926542E+02  6.077637422E+02  1.250411551E+02  0.00000E+00  9.000E+00
       5     1     1     2   501     0 -4.380974558E-01 -2.075072357E+00  3.437704648E+00  6.235235995E+00  4.750000000E+00  0.00000E+00  9.000E+00
      -5     1     1     2     0   503 -1.258338462E+01 -1.098111388E+01 -1.633609107E+02  1.642810887E+02  4.750000000E+00  0.00000E+00  9.000E+00
      21     1     1     2   512   501 -2.719860119E+00  4.560885186E+00  6.717771603E+00  8.563163437E+00  4.298152060E-07  0.00000E+00  9.000E+00
#rwgt            1           9   9.8561611983793967E-003           3     1467365           0
</event>
<event>
      6   9999  3.45752E-01  8.60290E+00 -1.00000E+00  1.94351E-01
      21    -1     0     0   501   502  0.000000000E+00  0.000000000E+00  3.374628521E+01  3.374628521E+01  0.000000000E+00  0.00000E+00  9.000E+00
      21    -1     0     0   511   503  0.000000000E+00  0.000000000E+00 -2.558198055E+02  2.558198055E+02  0.000000000E+00  0.00000E+00  9.000E+00
      25     1     1     2     0     0 -1.901567964E+00 -5.387325153E+00 -2.163497658E+02  2.499301308E+02  1.250008395E+02  0.00000E+00  9.000E+00
       5     1     1     2   501     0  1.408673407E+00 -5.630358903E-01  1.357282475E+01  1.445978706E+01  4.750000000E+00  0.00000E+00  9.000E+00
      -5     1     1     2     0   503  3.957813118E-01 -2.651987915E+00 -1.912926599E+00  5.780265645E+00  4.750000000E+00  0.00000E+00  9.000E+00
      21     1     1     2   511   502  9.711324507E-02  8.602348959E+00 -1.738365267E+01  1.939590727E+01  2.384185791E-07  0.00000E+00  9.000E+00
#rwgt            1           9   2.0594973237117267                3     1471432           0
</event>
<event>
      6   9999  3.45752E-01  1.69628E+01 -1.00000E+00  1.65869E-01
      21    -1     0     0   501   502  0.000000000E+00  0.000000000E+00  8.630495447E+01  8.630495447E+01  0.000000000E+00  0.00000E+00  9.000E+00
      21    -1     0     0   512   503  0.000000000E+00  0.000000000E+00 -1.189476092E+02  1.189476092E+02  0.000000000E+00  0.00000E+00  9.000E+00
      25     1     1     2     0     0 -3.144812814E+01  3.640476810E+01 -2.289990893E+01  1.358824917E+02  1.250014152E+02  0.00000E+00  9.000E+00
       5     1     1     2   501     0 -1.665053483E+00 -2.575881407E-02  1.160769835E+01  1.265204441E+01  4.750000000E+00  0.00000E+00  9.000E+00
      -5     1     1     2     0   503  1.714667632E+01 -3.065113571E+01 -1.246669473E+01  3.756969000E+01  4.750000000E+00  0.00000E+00  9.000E+00
      21     1     1     2   512   502  1.596650530E+01 -5.727873577E+00 -8.883749373E+00  1.914833753E+01  2.384185791E-07  0.00000E+00  9.000E+00
#rwgt            1           9   8.9713588543307438E-003           3     1474324           0
</event>
<event>
      6   9999 -3.45752E-01  1.64302E+01 -1.00000E+00  1.67014E-01
      21    -1     0     0   501   502  0.000000000E+00  0.000000000E+00  6.798375064E+01  6.798375064E+01  0.000000000E+00  0.00000E+00  9.000E+00
      21    -1     0     0   502   511  0.000000000E+00  0.000000000E+00 -1.683500052E+02  1.683500052E+02  0.000000000E+00  0.00000E+00  9.000E+00
      25     1     1     2     0     0  2.725681818E+01 -1.220201065E+01 -4.578634809E+01  1.364239978E+02  1.249931770E+02  0.00000E+00  9.000E+00
       5     1     1     2   501     0  8.628221478E-01 -1.073886026E+00  1.438708530E+01  1.521342883E+01  4.750000000E+00  0.00000E+00  9.000E+00
      -5     1     1     2     0   503 -1.954673680E+01 -7.404123463E-01 -8.179682119E+00  2.172769729E+01  4.750000000E+00  0.00000E+00  9.000E+00
      21     1     1     2   503   511 -8.572903524E+00  1.401630903E+01 -6.078730965E+01  6.296863194E+01  9.536743164E-07  0.00000E+00  9.000E+00
#rwgt            1           9  -1.0829893230919596E-003           3     1475812           0
</event>
<event>
      6   9999  3.45752E-01  9.57216E+00 -1.00000E+00  1.89216E-01
      21    -1     0     0   501   502  0.000000000E+00  0.000000000E+00  4.468561712E+01  4.468561712E+01  0.000000000E+00  0.00000E+00  9.000E+00
      21    -1     0     0   512   503  0.000000000E+00  0.000000000E+00 -3.724430549E+02  3.724430549E+02  0.000000000E+00  0.00000E+00  9.000E+00
      25     1     1     2     0     0 -7.021229331E+00  1.014583781E+01 -1.357790265E+02  1.849361035E+02  1.249527216E+02  0.00000E+00  9.000E+00
       5     1     1     2   501     0 -1.684008608E+00 -5.899347439E-02  1.873876904E+01  1.940472443E+01  4.750000000E+00  0.00000E+00  9.000E+00
      -5     1     1     2     0   503  3.743121490E+00 -1.901271152E+00 -9.984250949E+00  1.182681519E+01  4.750000000E+00  0.00000E+00  9.000E+00
      21     1     1     2   512   502  4.962116450E+00 -8.185573183E+00 -2.007329294E+02  2.009610289E+02  0.000000000E+00  0.00000E+00  9.000E+00
#rwgt            1           9   2.3272851859552766E-002           3     1477164           0
</event>
<event>
      6   9999  3.45752E-01  3.17875E+02 -1.00000E+00  1.02358E-01
       1    -1     0     0   501     0  0.000000000E+00  0.000000000E+00  1.080719948E+02  1.080719948E+02  0.000000000E+00  0.00000E+00  9.000E+00
      21    -1     0     0   511   502  0.000000000E+00  0.000000000E+00 -1.808101885E+03  1.808101885E+03  0.000000000E+00  0.00000E+00  9.000E+00
      25     1     1     2     0     0  1.033318187E+02 -6.159992709E+01 -7.443283770E+02  7.642786465E+02  1.250004036E+02  0.00000E+00  9.000E+00
       5     1     1     2   501     0  1.346568090E+02 -1.440809823E+02 -7.065891119E+02  7.336092429E+02  4.750000000E+00  0.00000E+00  9.000E+00
      -5     1     1     2     0   502  2.240483905E+00 -2.487845620E+00 -3.393690056E+01  3.443087079E+01  4.750000000E+00  0.00000E+00  9.000E+00
       1     1     1     2   511     0 -2.402291116E+02  2.081687550E+02 -2.151755005E+02  3.838551194E+02  8.092194914E-06  0.00000E+00  9.000E+00
#rwgt            1           2   4.7365472784321620E-004           3     1479901           0
</event>
<event>
      6   9999  3.45752E-01  7.95191E+00 -1.00000E+00  1.98326E-01
      21    -1     0     0   501   502  0.000000000E+00  0.000000000E+00  2.177390825E+03  2.177390825E+03  0.000000000E+00  0.00000E+00  9.000E+00
      21    -1     0     0   512   503  0.000000000E+00  0.000000000E+00 -5.575629182E+02  5.575629182E+02  0.000000000E+00  0.00000E+00  9.000E+00
      25     1     1     2     0     0 -9.114424019E-01  8.058782005E+00  2.664846336E+02  2.944564108E+02  1.249989729E+02  0.00000E+00  9.000E+00
       5     1     1     2   501     0  1.485135046E+00 -1.742092056E+00  1.894320535E+03  1.894327874E+03  4.750000000E+00  0.00000E+00  9.000E+00
      -5     1     1     2     0   503  1.993532168E+00  1.209415299E+00 -1.601241323E-01  5.293863958E+00  4.750000000E+00  0.00000E+00  9.000E+00
      21     1     1     2   512   502 -2.567224812E+00 -7.526105248E+00 -5.408171376E+02  5.408755949E+02  0.000000000E+00  0.00000E+00  9.000E+00
#rwgt            1           9   8.2712780449295892E-002           3     1479944           0
</event>
<event>
      6   9999  3.45752E-01  1.31630E+01 -1.00000E+00  1.75440E-01
      21    -1     0     0   511   502  0.000000000E+00  0.000000000E+00  3.086703553E+01  3.086703553E+01  0.000000000E+00  0.00000E+00  9.000E+00
      21    -1     0     0   502   503  0.000000000E+00  0.000000000E+00 -8.737464118E+02  8.737464118E+02  0.000000000E+00  0.00000E+00  9.000E+00
      25     1     1     2     0     0 -6.365262562E+00 -1.116830930E+01 -4.646693664E+02  4.813600372E+02  1.249984706E+02  0.00000E+00  9.000E+00
       5     1     1     2   501     0  1.165113650E+00 -4.406976576E+00  3.207144042E+00  7.323059829E+00  4.750000000E+00  0.00000E+00  9.000E+00
      -5     1     1     2     0   503  5.208035881E+00  2.412315906E+00 -3.961235095E+02  3.961935640E+02  4.750000000E+00  0.00000E+00  9.000E+00
      21     1     1     2   511   501 -7.886969408E-03  1.316296997E+01  1.470635554E+01  1.973678631E+01  8.429369702E-07  0.00000E+00  9.000E+00
#rwgt            1           9   4.9049700047703983E-003           3     1483533           0
</event>
<event>
      6   9999  3.45752E-01  1.77777E+01 -1.00000E+00  1.64216E-01
      21    -1     0     0   501   502  0.000000000E+00  0.000000000E+00  1.224551599E+03  1.224551599E+03  0.000000000E+00  0.00000E+00  9.000E+00
      21    -1     0     0   512   503  0.000000000E+00  0.000000000E+00 -1.383153617E+02  1.383153617E+02  0.000000000E+00  0.00000E+00  9.000E+00
      25     1     1     2     0     0  2.328293792E+01 -5.769644084E+01  8.829008833E+01  1.651974850E+02  1.249963794E+02  0.00000E+00  9.000E+00
       5     1     1     2   501     0 -1.633302169E+00  4.772702872E-01  7.865006760E+02  7.865168602E+02  4.750000000E+00  0.00000E+00  9.000E+00
      -5     1     1     2     0   503 -3.775259307E+01  4.968638630E+01  3.073283490E+02  3.136355717E+02  4.750000000E+00  0.00000E+00  9.000E+00
      21     1     1     2   512   502  1.610295732E+01  7.532784246E+00 -9.588287560E+01  9.751704418E+01  4.473129043E-06  0.00000E+00  9.000E+00
#rwgt            1           9   1.4347365788141485E-002           3     1486157           0
</event>
<event>
      6   9999  3.45752E-01  4.76145E+01 -1.00000E+00  1.35933E-01
      21    -1     0     0   501   502  0.000000000E+00  0.000000000E+00  9.349004598E+02  9.349004598E+02  0.000000000E+00  0.00000E+00  9.000E+00
      21    -1     0     0   502   511  0.000000000E+00  0.000000000E+00 -2.516875078E+02  2.516875078E+02  0.000000000E+00  0.00000E+00  9.000E+00
      25     1     1     2     0     0 -4.911306664E+01  1.615172566E+01 -1.360614433E+02  1.918580327E+02  1.249952671E+02  0.00000E+00  9.000E+00
       5     1     1     2   501     0 -5.424906211E-01 -9.228757983E+00  8.869077294E+02  8.869686281E+02  4.750000000E+00  0.00000E+00  9.000E+00
      -5     1     1     2     0   503  6.414719090E+00 -2.685709327E+01 -4.024745090E+00  2.830570884E+01  4.750000000E+00  0.00000E+00  9.000E+00
      21     1     1     2   503   511  4.324083817E+01  1.993412560E+01 -6.360858896E+01  7.945559791E+01  2.132480600E-06  0.00000E+00  9.000E+00
#rwgt            1           9   7.9586132982758483E-003           3     1488758           0
</event>
<event>
      6   9999  3.45752E-01  1.54086E+01 -1.00000E+00  1.69366E-01
      21    -1     0     0   501   502  0.000000000E+00  0.000000000E+00  1.150692103E+01  1.150692103E+01  0.000000000E+00  0.00000E+00  9.000E+00
      21    -1     0     0   502   512  0.000000000E+00  0.000000000E+00 -1.045012465E+03  1.045012465E+03  0.000000000E+00  0.00000E+00  9.000E+00
      25     1     1     2     0     0 -1.639259035E+01 -3.165744189E+01 -4.854806545E+02  5.025805942E+02  1.249995085E+02  0.00000E+00  9.000E+00
       5     1     1     2   501     0  3.761790507E-01 -1.467932552E+00 -4.061360658E-01  5.002377751E+00  4.750000000E+00  0.00000E+00  9.000E+00
      -5     1     1     2     0   503  1.035086641E+01  1.879618302E+01 -2.714915973E+02  2.723796741E+02  4.750000000E+00  0.00000E+00  9.000E+00
      21     1     1     2   503   512  5.665544887E+00  1.432919143E+01 -2.761271561E+02  2.765567400E+02  0.000000000E+00  0.00000E+00  9.000E+00
#rwgt            1           9   2.7407172364543476E-003           3     1490711           0
</event>
<event>
      6   9999 -3.45752E-01  1.66917E+01 -1.00000E+00  1.66445E-01
      21    -1     0     0   501   502  0.000000000E+00  0.000000000E+00  3.109135458E+01  3.109135458E+01  0.000000000E+00  0.00000E+00  9.000E+00
       1    -1     0     0   502     0  0.000000000E+00  0.000000000E+00 -1.476886678E+03  1.476886678E+03  0.000000000E+00  0.00000E+00  9.000E+00
      25     1     1     2     0     0  8.539021856E+01 -3.674282013E+01 -5.383122083E+02  5.603984486E+02  1.249994532E+02  0.00000E+00  9.000E+00
       5     1     1     2   501     0 -6.255488281E-02  7.249822512E-01  1.668066581E+01  1.735905021E+01  4.750000000E+00  0.00000E+00  9.000E+00
      -5     1     1     2     0   503 -7.866097743E+01  2.071529129E+01 -5.851239782E+02  5.907700949E+02  4.750000000E+00  0.00000E+00  9.000E+00
       1     1     1     2   503     0 -6.666686250E+00  1.530254659E+01 -3.390398030E+02  3.394504392E+02  3.814697266E-06  0.00000E+00  9.000E+00
#rwgt            1           9  -1.6210910707758374E-004           3     1493203           0
</event>
<event>
      6   9999  3.45752E-01  1.68290E+01 -1.00000E+00  1.66152E-01
      21    -1     0     0   501   502  0.000000000E+00  0.000000000E+00  1.323046944E+01  1.323046944E+01  0.000000000E+00  0.00000E+00  9.000E+00
       2    -1     0     0   502     0  0.000000000E+00  0.000000000E+00 -1.738715789E+03  1.738715789E+03  0.000000000E+00  0.00000E+00  9.000E+00
      25     1     1     2     0     0  8.425694151E+00  2.769054821E+01 -7.301086463E+02  7.412967754E+02  1.249980603E+02  0.00000E+00  9.000E+00
       5     1     1     2   501     0  1.216628248E+00 -2.660831067E+00  6.402808315E-01  5.615395427E+00  4.750000000E+00  0.00000E+00  9.000E+00
      -5     1     1     2     0   503 -8.735461446E+00 -4.183426917E+01 -9.992487945E+01  1.087839988E+02  4.750000000E+00  0.00000E+00  9.000E+00
       2     1     1     2   503     0 -9.068609537E-01  1.680455203E+01 -8.960920743E+02  8.962500884E+02  1.525878906E-05  0.00000E+00  9.000E+00
#rwgt            1           9   1.2896423397738062E-004           3     1495372           0
</event>
<event>
      6   9999  3.45752E-01  2.29169E+01 -1.00000E+00  1.55825E-01
      21    -1     0     0   501   502  0.000000000E+00  0.000000000E+00  2.042551802E+01  2.042551802E+01  0.000000000E+00  0.00000E+00  9.000E+00
      21    -1     0     0   511   503  0.000000000E+00  0.000000000E+00 -1.059433795E+03  1.059433795E+03  0.000000000E+00  0.00000E+00  9.000E+00
      25     1     1     2     0     0  6.012543555E+01 -7.695140077E+01 -7.413313133E+02  7.581120773E+02  1.250008786E+02  0.00000E+00  9.000E+00
       5     1     1     2   501     0  3.126188640E-01 -9.969222920E-01  2.559314343E+00  5.495832468E+00  4.750000000E+00  0.00000E+00  9.000E+00
      -5     1     1     2     0   503 -4.623505236E+01  5.996333366E+01 -2.152201018E+02  2.282006489E+02  4.750000000E+00  0.00000E+00  9.000E+00
      21     1     1     2   511   502 -1.420300205E+01  1.798498940E+01 -8.501617627E+01  8.805075433E+01  0.000000000E+00  0.00000E+00  9.000E+00
#rwgt            1           9   1.1942360750868164E-004           3     1497304           0
</event>
<event>
      6   9999  3.45752E-01  2.61365E+00 -1.00000E+00  2.93570E-01
      21    -1     0     0   501   502  0.000000000E+00  0.000000000E+00  1.134291896E+01  1.134291896E+01  0.000000000E+00  0.00000E+00  9.000E+00
      21    -1     0     0   502   512  0.000000000E+00  0.000000000E+00 -1.463475722E+03  1.463475722E+03  0.000000000E+00  0.00000E+00  9.000E+00
      25     1     1     2     0     0 -1.475722631E+01 -6.316496014E+00 -7.667228918E+02  7.770117238E+02  1.250022093E+02  0.00000E+00  9.000E+00
       5     1     1     2   501     0 -3.537338968E-01  3.822541597E-01  3.925119566E+00  6.183874960E+00  4.750000000E+00  0.00000E+00  9.000E+00
      -5     1     1     2     0   503  1.257195299E+01  5.314089120E+00 -4.460595853E+01  4.688867221E+01  4.750000000E+00  0.00000E+00  9.000E+00
      21     1     1     2   503   512  2.539007224E+00  6.201527345E-01 -6.447290727E+02  6.447343704E+02  1.321449896E-05  0.00000E+00  9.000E+00
#rwgt            1           9   5.8689423092137438E-004           3     1499253           0
</event>
<event>
      6   9999  3.45752E-01  3.01809E+00 -1.00000E+00  2.76231E-01
      21    -1     0     0   501   502  0.000000000E+00  0.000000000E+00  3.505445321E+01  3.505445321E+01  0.000000000E+00  0.00000E+00  9.000E+00
      21    -1     0     0   511   503  0.000000000E+00  0.000000000E+00 -1.258913785E+03  1.258913785E+03  0.000000000E+00  0.00000E+00  9.000E+00
      25     1     1     2     0     0  7.881255032E+00 -4.751642543E+01 -1.363587268E+02  1.911556022E+02  1.250073478E+02  0.00000E+00  9.000E+00
       5     1     1     2   501     0  1.476917244E+00  8.523755526E-01  6.083324797E+00  7.904250073E+00  4.750000000E+00  0.00000E+00  9.000E+00
      -5     1     1     2     0   503 -9.228801386E+00  4.967936142E+01 -1.018238340E+03  1.019502373E+03  4.750000000E+00  0.00000E+00  9.000E+00
      21     1     1     2   511   502 -1.293708898E-01 -3.015311535E+00 -7.534559030E+01  7.540601315E+01  0.000000000E+00  0.00000E+00  9.000E+00
#rwgt            1           9   1.2491897029652051E-003           3     1506099           0
</event>
<event>
      6   9999  3.45752E-01  2.74523E+01 -1.00000E+00  1.50375E-01
       2    -1     0     0   501     0  0.000000000E+00  0.000000000E+00  1.832176168E+03  1.832176168E+03  0.000000000E+00  0.00000E+00  9.000E+00
      21    -1     0     0   502   503  0.000000000E+00  0.000000000E+00 -1.398114300E+03  1.398114300E+03  0.000000000E+00  0.00000E+00  9.000E+00
      25     1     1     2     0     0  6.254611820E+00 -9.776070987E+01 -2.240576208E+02  2.746325893E+02  1.249998604E+02  0.00000E+00  9.000E+00
       5     1     1     2   501     0  5.549424273E+00 -4.774675158E+00  2.242942572E+01  2.406730709E+01  4.750000000E+00  0.00000E+00  9.000E+00
      -5     1     1     2     0   503 -1.458454202E+01  7.522425094E+01 -1.146560846E+03  1.149128249E+03  4.750000000E+00  0.00000E+00  9.000E+00
       2     1     1     2   502     0  2.780505928E+00  2.731113408E+01  1.782250909E+03  1.782462322E+03  2.157918644E-05  0.00000E+00  9.000E+00
#rwgt            1           9   9.4544350430117051E-004           3     1514212           0
</event>
<event>
      6   9999 -3.45752E-01  1.01662E+01 -1.00000E+00  1.86443E-01
      21    -1     0     0   501   511  0.000000000E+00  0.000000000E+00  2.453765365E+01  2.453765365E+01  0.000000000E+00  0.00000E+00  9.000E+00
      21    -1     0     0   502   503  0.000000000E+00  0.000000000E+00 -1.025396409E+03  1.025396409E+03  0.000000000E+00  0.00000E+00  9.000E+00
      25     1     1     2     0     0  8.054387105E-01  1.417919179E+00 -1.006321502E+03  1.014056398E+03  1.249990180E+02  0.00000E+00  9.000E+00
       5     1     1     2   501     0  8.033646203E+00 -5.399388343E+00  1.411746843E+01  1.776396016E+01  4.750000000E+00  0.00000E+00  9.000E+00
      -5     1     1     2     0   503 -5.087370696E-01 -1.845783927E+00 -5.392585507E+00  7.436948982E+00  4.750000000E+00  0.00000E+00  9.000E+00
      21     1     1     2   502   511 -8.330347843E+00  5.827253091E+00 -3.262136750E+00  1.067675559E+01  9.424321831E-08  0.00000E+00  9.000E+00
#rwgt            1           9  -1.7025294160596933E-004           3     1516531           0
</event>
<event>
      6   9999  3.45752E-01  4.99432E+00 -1.00000E+00  2.29449E-01
      21    -1     0     0   501   512  0.000000000E+00  0.000000000E+00  1.118272390E+02  1.118272390E+02  0.000000000E+00  0.00000E+00  9.000E+00
      21    -1     0     0   502   503  0.000000000E+00  0.000000000E+00 -1.656222842E+02  1.656222842E+02  0.000000000E+00  0.00000E+00  9.000E+00
      25     1     1     2     0     0 -1.300590071E+01 -1.988490780E+01 -7.045847064E+01  1.454447247E+02  1.250008354E+02  0.00000E+00  9.000E+00
       5     1     1     2   501     0  8.258685721E-01 -1.147259344E+00  1.724022800E+01  1.793840084E+01  4.750000000E+00  0.00000E+00  9.000E+00
      -5     1     1     2     0   503  1.214303369E+01  1.603798865E+01 -5.534095320E+01  5.907498581E+01  4.750000000E+00  0.00000E+00  9.000E+00
      21     1     1     2   502   512  3.699845253E-02  4.994178487E+00  5.476415057E+01  5.499141184E+01  9.536743164E-07  0.00000E+00  9.000E+00
#rwgt            1           9   8.3632699658881968                3     1519793           0
</event>
<event>
      6   9999  3.45752E-01  8.83335E+00 -1.00000E+00  1.93053E-01
      21    -1     0     0   501   511  0.000000000E+00  0.000000000E+00  1.873322206E+02  1.873322206E+02  0.000000000E+00  0.00000E+00  9.000E+00
      21    -1     0     0   502   503  0.000000000E+00  0.000000000E+00 -1.581321040E+03  1.581321040E+03  0.000000000E+00  0.00000E+00  9.000E+00
      25     1     1     2     0     0 -3.095614343E+01 -3.543883744E+01 -1.191193542E+02  1.789654247E+02  1.250000348E+02  0.00000E+00  9.000E+00
       5     1     1     2   501     0  9.237447393E+00 -4.303462012E+00  3.342638000E+01  3.526663578E+01  4.750000000E+00  0.00000E+00  9.000E+00
      -5     1     1     2     0   503  2.998464754E+01  4.285711400E+01 -1.430717558E+03  1.431681216E+03  4.750000000E+00  0.00000E+00  9.000E+00
      21     1     1     2   502   511 -8.265951502E+00 -3.114814547E+00  1.224217126E+02  1.227399842E+02  4.862803949E-06  0.00000E+00  9.000E+00
#rwgt            1           9   2.0497719230740540E-003           3     1523996           0
</event>
<event>
      6   9999  3.45752E-01  8.70918E+00 -1.00000E+00  1.93746E-01
      21    -1     0     0   501   512  0.000000000E+00  0.000000000E+00  3.663827685E+01  3.663827685E+01  0.000000000E+00  0.00000E+00  9.000E+00
      21    -1     0     0   502   503  0.000000000E+00  0.000000000E+00 -7.173182069E+02  7.173182069E+02  0.000000000E+00  0.00000E+00  9.000E+00
      25     1     1     2     0     0 -2.255773008E+00 -5.670194135E+00 -6.630909023E+02  6.747972485E+02  1.249981691E+02  0.00000E+00  9.000E+00
       5     1     1     2   501     0 -7.095180598E-01 -1.450628530E+00 -2.636280288E+00  5.667469697E+00  4.750000000E+00  0.00000E+00  9.000E+00
      -5     1     1     2     0   503  2.433965565E-01 -1.152093990E+00 -4.343393047E+01  4.370875632E+01  4.750000000E+00  0.00000E+00  9.000E+00
      21     1     1     2   502   512  2.721894511E+00  8.272916654E+00  2.848118295E+01  2.978300928E+01  2.078484985E-06  0.00000E+00  9.000E+00
#rwgt            1           9   9.1043663962936215E-006           3     1528835           0
</event>
<event>
      6   9999  3.45752E-01  5.59020E+00 -1.00000E+00  2.18429E-01
      21    -1     0     0   501   511  0.000000000E+00  0.000000000E+00  2.837133247E+01  2.837133247E+01  0.000000000E+00  0.00000E+00  9.000E+00
      21    -1     0     0   502   503  0.000000000E+00  0.000000000E+00 -1.335881347E+03  1.335881347E+03  0.000000000E+00  0.00000E+00  9.000E+00
      25     1     1     2     0     0 -5.663045999E+00  1.493439403E+00 -1.203993294E+03  1.210478650E+03  1.249976327E+02  0.00000E+00  9.000E+00
       5     1     1     2   501     0 -3.735988708E+00  7.341744098E+00  1.186613454E+01  1.520613255E+01  4.750000000E+00  0.00000E+00  9.000E+00
      -5     1     1     2     0   503  8.560000409E+00 -3.308309903E+00 -1.260775440E+02  1.265003088E+02  4.750000000E+00  0.00000E+00  9.000E+00
      21     1     1     2   502   511  8.390342979E-01 -5.526873597E+00  1.069468929E+01  1.206758838E+01  1.348699152E-06  0.00000E+00  9.000E+00
#rwgt            1           9  0.16329862398724770                3     1531307           0
</event>
<event>
      6   9999  3.45752E-01  7.71685E+00 -1.00000E+00  1.99886E-01
      21    -1     0     0   501   502  0.000000000E+00  0.000000000E+00  1.809447920E+02  1.809447920E+02  0.000000000E+00  0.00000E+00  9.000E+00
      21    -1     0     0   512   503  0.000000000E+00  0.000000000E+00 -3.772404787E+02  3.772404787E+02  0.000000000E+00  0.00000E+00  9.000E+00
      25     1     1     2     0     0  9.055328885E+01 -9.700592354E+01  7.853143145E+01  1.985012604E+02  1.250020693E+02  0.00000E+00  9.000E+00
       5     1     1     2   501     0  4.265500778E-01  1.463509606E+00  2.338715385E+01  2.391328648E+01  4.750000000E+00  0.00000E+00  9.000E+00
      -5     1     1     2     0   503 -9.845457478E+01  9.746023355E+01 -2.408555439E+02  2.778952248E+02  4.750000000E+00  0.00000E+00  9.000E+00
      21     1     1     2   512   502  7.474735849E+00 -1.917819624E+00 -5.735872808E+01  5.787549909E+01  6.743495762E-07  0.00000E+00  9.000E+00
#rwgt            1           9   5.5491540540256038E-004           3     1536460           0
</event>
<event>
      6   9999  3.45752E-01  1.10343E+01 -1.00000E+00  1.82801E-01
      21    -1     0     0   502   503  0.000000000E+00  0.000000000E+00  8.784734248E+00  8.784734248E+00  0.000000000E+00  0.00000E+00  9.000E+00
      21    -1     0     0   511   502  0.000000000E+00  0.000000000E+00 -7.956946367E+02  7.956946367E+02  0.000000000E+00  0.00000E+00  9.000E+00
      25     1     1     2     0     0  6.588159323E+00 -1.250454178E+01 -6.041331575E+02  6.170913914E+02  1.250005836E+02  0.00000E+00  9.000E+00
       5     1     1     2   501     0  1.229828966E+00 -6.397762674E+00 -1.900471441E+01  2.064426110E+01  4.750000000E+00  0.00000E+00  9.000E+00
      -5     1     1     2     0   503  3.203348760E+00  1.943801095E+01 -1.100364794E+02  1.118869385E+02  4.750000000E+00  0.00000E+00  9.000E+00
      21     1     1     2   511   501 -1.102133705E+01 -5.357064979E-01 -5.373555114E+01  5.485677997E+01  0.000000000E+00  0.00000E+00  9.000E+00
#rwgt            1           9   3.9219082482794244E-002           3     1541229           0
</event>
<event>
      6   9999 -3.45752E-01  8.67668E+00 -1.00000E+00  1.93930E-01
      21    -1     0     0   512   502  0.000000000E+00  0.000000000E+00  1.633084843E+01  1.633084843E+01  0.000000000E+00  0.00000E+00  9.000E+00
      21    -1     0     0   502   503  0.000000000E+00  0.000000000E+00 -8.652965218E+02  8.652965218E+02  0.000000000E+00  0.00000E+00  9.000E+00
      25     1     1     2     0     0  6.145804281E+00 -9.954489276E+00 -7.930605980E+02  8.029368458E+02  1.250024139E+02  0.00000E+00  9.000E+00
       5     1     1     2   501     0  1.033845824E+00  1.023967558E+00  7.245071486E+00  8.784697353E+00  4.750000000E+00  0.00000E+00  9.000E+00
      -5     1     1     2     0   503 -2.929189373E+00  1.366238490E+00 -6.058654499E+01  6.085834940E+01  4.750000000E+00  0.00000E+00  9.000E+00
      21     1     1     2   512   501 -4.250460732E+00  7.564283229E+00 -2.563601839E+00  9.047477637E+00  4.150983178E-07  0.00000E+00  9.000E+00
#rwgt            1           9  -2.6161380783166246E-004           3     1543158           0
</event>
<event>
      6   9999  3.45752E-01  7.91092E+00 -1.00000E+00  1.98593E-01
      21    -1     0     0   501   502  0.000000000E+00  0.000000000E+00  5.257285345E+01  5.257285345E+01  0.000000000E+00  0.00000E+00  9.000E+00
      21    -1     0     0   511   503  0.000000000E+00  0.000000000E+00 -1.866671631E+03  1.866671631E+03  0.000000000E+00  0.00000E+00  9.000E+00
      25     1     1     2     0     0 -2.410286591E+01  4.537755309E+01 -4.058343943E+02  4.277456435E+02  1.249988377E+02  0.00000E+00  9.000E+00
       5     1     1     2   501     0  1.324609592E+01 -3.283989720E+00  3.975994468E+01  4.230436557E+01  4.750000000E+00  0.00000E+00  9.000E+00
      -5     1     1     2     0   503  1.876212820E+01 -4.179684061E+01 -9.583418965E+02  9.594481468E+02  4.750000000E+00  0.00000E+00  9.000E+00
      21     1     1     2   511   502 -7.905358215E+00 -2.967227538E-01 -4.896824312E+02  4.897463284E+02  7.629394531E-06  0.00000E+00  9.000E+00
#rwgt            1           9  0.16683603823405804                3     1545998           0
</event>
<event>
      6   9999  3.45752E-01  1.65492E+01 -1.00000E+00  1.66753E-01
      21    -1     0     0   501   502  0.000000000E+00  0.000000000E+00  1.472631970E+02  1.472631970E+02  0.000000000E+00  0.00000E+00  9.000E+00
      21    -1     0     0   502   512  0.000000000E+00  0.000000000E+00 -8.134047028E+01  8.134047028E+01  0.000000000E+00  0.00000E+00  9.000E+00
      25     1     1     2     0     0  9.102840630E+00  1.261332697E+01 -1.356746261E+01  1.266900575E+02  1.249973476E+02  0.00000E+00  9.000E+00
       5     1     1     2   501     0  3.702907867E+00 -1.605665230E-01  7.347072110E+01  7.371734305E+01  4.750000000E+00  0.00000E+00  9.000E+00
      -5     1     1     2     0   503  1.011708312E+00 -3.344790658E+00  9.597780759E+00  1.126459381E+01  4.750000000E+00  0.00000E+00  9.000E+00
      21     1     1     2   503   512 -1.381745681E+01 -9.107969785E+00 -3.578312509E+00  1.693167289E+01  1.632340424E-07  0.00000E+00  9.000E+00
#rwgt            1           9   106.87140173037272                3     1550776           0
</event>
<event>
      6   9999  3.45752E-01  9.21081E+00 -1.00000E+00  1.91034E-01
      21    -1     0     0   501   502  0.000000000E+00  0.000000000E+00  4.608440652E+02  4.608440652E+02  0.000000000E+00  0.00000E+00  9.000E+00
      21    -1     0     0   511   503  0.000000000E+00  0.000000000E+00 -3.943613099E+01  3.943613099E+01  0.000000000E+00  0.00000E+00  9.000E+00
      25     1     1     2     0     0  1.106372062E+01 -1.746422699E+01  1.736853691E+02  2.149873670E+02  1.250022215E+02  0.00000E+00  9.000E+00
       5     1     1     2   501     0 -3.613314059E-01  9.480630333E-01  1.125113529E+02  1.126161464E+02  4.750000000E+00  0.00000E+00  9.000E+00
      -5     1     1     2     0   503 -8.294006245E+00  2.540653411E+01  1.515277107E+02  1.539398978E+02  4.750000000E+00  0.00000E+00  9.000E+00
      21     1     1     2   511   502 -2.408382970E+00 -8.890370153E+00 -1.631649853E+01  1.873678506E+01  2.384185791E-07  0.00000E+00  9.000E+00
#rwgt            1           9   3.7551226500058831E-004           3     1552937           0
</event>
<event>
      6   9999  3.45752E-01  1.18942E+01 -1.00000E+00  1.79592E-01
      21    -1     0     0   501   502  0.000000000E+00  0.000000000E+00  1.867976590E+03  1.867976590E+03  0.000000000E+00  0.00000E+00  9.000E+00
      21    -1     0     0   502   512  0.000000000E+00  0.000000000E+00 -2.997813118E+01  2.997813118E+01  0.000000000E+00  0.00000E+00  9.000E+00
      25     1     1     2     0     0  3.007154190E+01  8.372247774E+01  1.282094035E+03  1.291242306E+03  1.250113116E+02  0.00000E+00  9.000E+00
       5     1     1     2   501     0  2.559325060E+00 -9.088549816E-01  3.889358858E+02  3.889743718E+02  4.750000000E+00  0.00000E+00  9.000E+00
      -5     1     1     2     0   503 -2.087183965E+01 -8.102534537E+01  1.809302747E+02  1.993967580E+02  4.750000000E+00  0.00000E+00  9.000E+00
      21     1     1     2   503   512 -1.175902731E+01 -1.788277390E+00 -1.396173652E+01  1.834128529E+01  1.420542632E-06  0.00000E+00  9.000E+00
#rwgt            1           9   3.3683754995002873E-003           3     1556216           0
</event>
<event>
      6   9999  3.45752E-01  3.06853E+01 -1.00000E+00  1.47206E-01
      21    -1     0     0   501   511  0.000000000E+00  0.000000000E+00  4.064725970E+01  4.064725970E+01  0.000000000E+00  0.00000E+00  9.000E+00
      21    -1     0     0   502   503  0.000000000E+00  0.000000000E+00 -7.700212208E+02  7.700212208E+02  0.000000000E+00  0.00000E+00  9.000E+00
      25     1     1     2     0     0  1.875438408E+01  2.042910530E+01 -6.568126871E+02  6.691762080E+02  1.249992649E+02  0.00000E+00  9.000E+00
       5     1     1     2   501     0  1.266121050E+00  3.848992148E+00 -1.549031354E+00  6.432713363E+00  4.750000000E+00  0.00000E+00  9.000E+00
      -5     1     1     2     0   503 -3.144883241E+00  1.350032817E+00 -9.557499189E+01  9.575413544E+01  4.750000000E+00  0.00000E+00  9.000E+00
      21     1     1     2   502   511 -1.687562189E+01 -2.562813027E+01  2.456274926E+01  3.930542362E+01  1.011524364E-06  0.00000E+00  9.000E+00
#rwgt            1           9   4.1758761526638658E-004           3     1559020           0
</event>
<event>
      6   9999  3.45752E-01  5.36963E+01 -1.00000E+00  1.33151E-01
      21    -1     0     0   512   502  0.000000000E+00  0.000000000E+00  7.145537874E+02  7.145537874E+02  0.000000000E+00  0.00000E+00  9.000E+00
      21    -1     0     0   502   503  0.000000000E+00  0.000000000E+00 -5.345913667E+02  5.345913667E+02  0.000000000E+00  0.00000E+00  9.000E+00
      25     1     1     2     0     0  2.319407568E+01  2.938009796E+02  4.023825459E+02  5.141887603E+02  1.249855479E+02  0.00000E+00  9.000E+00
       5     1     1     2   501     0  1.099031237E+00 -8.564592248E-01  6.274200999E+01  6.293698205E+01  4.750000000E+00  0.00000E+00  9.000E+00
      -5     1     1     2     0   503 -5.466920879E+01 -3.372230679E+02 -4.114381128E+02  5.348009004E+02  4.750000000E+00  0.00000E+00  9.000E+00
      21     1     1     2   512   501  3.037610188E+01  4.427854750E+01  1.262759776E+02  1.372185113E+02  1.907348633E-06  0.00000E+00  9.000E+00
#rwgt            1           9   7.4361071134449869E-002           3     1559957           0
</event>
<event>
      6   9999  3.45752E-01  1.98778E+01 -1.00000E+00  1.60414E-01
      21    -1     0     0   501   502  0.000000000E+00  0.000000000E+00  3.511766596E+01  3.511766596E+01  0.000000000E+00  0.00000E+00  9.000E+00
      21    -1     0     0   502   511  0.000000000E+00  0.000000000E+00 -1.180574238E+03  1.180574238E+03  0.000000000E+00  0.00000E+00  9.000E+00
      25     1     1     2     0     0  7.068368196E+00  1.916642423E+01 -1.083430303E+03  1.090809015E+03  1.250030874E+02  0.00000E+00  9.000E+00
       5     1     1     2   501     0 -6.725291790E+00  4.473380676E+00  2.857389685E+01  3.007109518E+01  4.750000000E+00  0.00000E+00  9.000E+00
      -5     1     1     2     0   503 -4.904096327E+00 -4.292359514E+00 -2.563746110E+01  2.687594505E+01  4.750000000E+00  0.00000E+00  9.000E+00
      21     1     1     2   503   511  4.561019921E+00 -1.934744539E+01 -6.496270513E+01  6.793584918E+01  9.536743164E-07  0.00000E+00  9.000E+00
#rwgt            1           9   4.0645229509645777E-006           3     1561744           0
</event>
<event>
      6   9999  3.45752E-01  7.35503E+00 -1.00000E+00  2.02438E-01
      21    -1     0     0   502   512  0.000000000E+00  0.000000000E+00  9.443961633E+00  9.443961633E+00  0.000000000E+00  0.00000E+00  9.000E+00
      21    -1     0     0   501   502  0.000000000E+00  0.000000000E+00 -7.557153473E+02  7.557153473E+02  0.000000000E+00  0.00000E+00  9.000E+00
      25     1     1     2     0     0 -6.047651334E+00 -4.845995843E+00 -4.856323627E+02  5.015218164E+02  1.250011314E+02  0.00000E+00  9.000E+00
       5     1     1     2   501     0 -2.847870183E+00  1.018732399E+00 -1.702622817E+02  1.703553792E+02  4.750000000E+00  0.00000E+00  9.000E+00
      -5     1     1     2     0   503  8.923247484E+00 -3.527712402E+00 -7.908348423E+01  7.980494395E+01  4.750000000E+00  0.00000E+00  9.000E+00
      21     1     1     2   503   512 -2.772596719E-02  7.354975845E+00 -1.129325704E+01  1.347716933E+01  3.371747881E-07  0.00000E+00  9.000E+00
#rwgt            1           9  0.10806803358170847                3     1563743           0
</event>
<event>
      6   9999  3.45752E-01  5.17217E+00 -1.00000E+00  2.23452E-01
      21    -1     0     0   501   511  0.000000000E+00  0.000000000E+00  1.834884884E+01  1.834884884E+01  0.000000000E+00  0.00000E+00  9.000E+00
      21    -1     0     0   502   503  0.000000000E+00  0.000000000E+00 -7.123184971E+02  7.123184971E+02  0.000000000E+00  0.00000E+00  9.000E+00
      25     1     1     2     0     0 -6.874562216E+00  5.310075422E+00 -6.750009260E+02  6.865320872E+02  1.249984011E+02  0.00000E+00  9.000E+00
       5     1     1     2   501     0  2.845396274E-01  2.021537510E-01 -3.605743635E+00  5.973752263E+00  4.750000000E+00  0.00000E+00  9.000E+00
      -5     1     1     2     0   503  3.137804396E+00 -1.660801642E+00 -2.582162834E+01  2.649383076E+01  4.750000000E+00  0.00000E+00  9.000E+00
      21     1     1     2   502   511  3.452218193E+00 -3.851427532E+00  1.045864963E+01  1.166767571E+01  1.086048314E-06  0.00000E+00  9.000E+00
#rwgt            1           9   2.6524873787631313E-005           3     1566602           0
</event>
<event>
      6   9999 -3.45752E-01  8.53438E+00 -1.00000E+00  1.94748E-01
      21    -1     0     0   512   502  0.000000000E+00  0.000000000E+00  2.488711258E+01  2.488711258E+01  0.000000000E+00  0.00000E+00  9.000E+00
      21    -1     0     0   502   503  0.000000000E+00  0.000000000E+00 -2.273002711E+03  2.273002711E+03  0.000000000E+00  0.00000E+00  9.000E+00
      25     1     1     2     0     0 -4.550632579E+00 -3.334567221E+01 -2.222034272E+03  2.225801320E+03  1.249902737E+02  0.00000E+00  9.000E+00
       5     1     1     2   501     0  5.151237358E+00 -7.706368328E-01  5.897202336E+00  9.190681305E+00  4.750000000E+00  0.00000E+00  9.000E+00
      -5     1     1     2     0   503  4.563213268E-01  2.564762705E+01 -4.218100704E+01  4.959646013E+01  4.750000000E+00  0.00000E+00  9.000E+00
      21     1     1     2   512   501 -1.056926106E+00  8.468681993E+00  1.020247832E+01  1.330136201E+01  6.529361695E-07  0.00000E+00  9.000E+00
#rwgt            1           9  -1.6184742652575245E-006           3     1570075           0
</event>
<event>
      6   9999  3.45752E-01  4.78692E+01 -1.00000E+00  1.35807E-01
      21    -1     0     0   501   502  0.000000000E+00  0.000000000E+00  1.873438149E+02  1.873438149E+02  0.000000000E+00  0.00000E+00  9.000E+00
      21    -1     0     0   502   511  0.000000000E+00  0.000000000E+00 -9.134676116E+02  9.134676116E+02  0.000000000E+00  0.00000E+00  9.000E+00
      25     1     1     2     0     0  2.341553140E+02  7.147313142E+01 -4.190922691E+02  5.011988643E+02  1.249994077E+02  0.00000E+00  9.000E+00
       5     1     1     2   501     0 -2.303851361E+00 -1.067669684E+01  1.013160699E+02  1.020137643E+02  4.750000000E+00  0.00000E+00  9.000E+00
      -5     1     1     2     0   503 -2.014745837E+02 -9.779240054E+01 -2.678633795E+02  3.491829235E+02  4.750000000E+00  0.00000E+00  9.000E+00
      21     1     1     2   503   511 -3.037687898E+01  3.699596596E+01 -1.404842180E+02  1.484158744E+02  1.907348633E-06  0.00000E+00  9.000E+00
#rwgt            1           9   2.4214308920022334E-003           3     1573502           0
</event>
<event>
      6   9999  3.45752E-01  6.32769E+00 -1.00000E+00  2.10891E-01
      21    -1     0     0   501   512  0.000000000E+00  0.000000000E+00  1.538968904E+02  1.538968904E+02  0.000000000E+00  0.00000E+00  9.000E+00
      21    -1     0     0   502   503  0.000000000E+00  0.000000000E+00 -7.579097991E+02  7.579097991E+02  0.000000000E+00  0.00000E+00  9.000E+00
      25     1     1     2     0     0 -1.687503090E+00 -5.850129971E+00 -6.432542592E+02  6.553322452E+02  1.250889200E+02  0.00000E+00  9.000E+00
       5     1     1     2   501     0  9.108206278E-01 -1.906539789E+00  2.913265211E-01  5.206904966E+00  4.750000000E+00  0.00000E+00  9.000E+00
      -5     1     1     2     0   503  5.062234509E+00  3.101169024E+00 -1.059534913E+02  1.062259303E+02  4.750000000E+00  0.00000E+00  9.000E+00
      21     1     1     2   502   512 -4.285552047E+00  4.655500737E+00  1.449035152E+02  1.450416091E+02  3.814697266E-06  0.00000E+00  9.000E+00
#rwgt            1           9   5.8358227866451284E-003           3     1575495           0
</event>
<event>
      6   9999  3.45752E-01  1.22894E+01 -1.00000E+00  1.78231E-01
      21    -1     0     0   502   511  0.000000000E+00  0.000000000E+00  1.464997514E+01  1.464997514E+01  0.000000000E+00  0.00000E+00  9.000E+00
      21    -1     0     0   501   502  0.000000000E+00  0.000000000E+00 -7.566950644E+02  7.566950644E+02  0.000000000E+00  0.00000E+00  9.000E+00
      25     1     1     2     0     0  5.108349405E+00  8.583405951E+00 -7.184209208E+02  7.292835514E+02  1.250044350E+02  0.00000E+00  9.000E+00
       5     1     1     2   501     0 -1.007753318E+01 -2.479603679E+00 -1.668389672E+01  2.021435181E+01  4.750000000E+00  0.00000E+00  9.000E+00
      -5     1     1     2     0   503 -1.486176806E+00  4.353582743E+00 -6.901074044E+00  9.557705120E+00  4.750000000E+00  0.00000E+00  9.000E+00
      21     1     1     2   503   511  6.455360582E+00 -1.045738502E+01 -3.919761987E-02  1.228943115E+01  5.224460245E-07  0.00000E+00  9.000E+00
#rwgt            1           9   3.0199023362754798E-003           3     1578604           0
</event>
<event>
      6   9999  3.45752E-01  4.34573E+00 -1.00000E+00  2.40627E-01
      21    -1     0     0   501   502  0.000000000E+00  0.000000000E+00  1.301880262E+01  1.301880262E+01  0.000000000E+00  0.00000E+00  9.000E+00
      21    -1     0     0   512   503  0.000000000E+00  0.000000000E+00 -1.143700977E+03  1.143700977E+03  0.000000000E+00  0.00000E+00  9.000E+00
      25     1     1     2     0     0 -2.694962444E+01 -4.124560338E+00 -7.661666851E+02  7.767751247E+02  1.249996426E+02  0.00000E+00  9.000E+00
       5     1     1     2   501     0  7.374916158E-01  4.698549049E-02  6.163865811E+00  7.816766804E+00  4.750000000E+00  0.00000E+00  9.000E+00
      -5     1     1     2     0   503  2.221428904E+01  2.373880438E+00 -1.859565747E+02  1.873539969E+02  4.750000000E+00  0.00000E+00  9.000E+00
      21     1     1     2   512   502  3.997843781E+00  1.703694410E+00 -1.847227800E+02  1.847738910E+02  2.697398305E-06  0.00000E+00  9.000E+00
#rwgt            1           9  0.40177074140577956                3     1580653           0
</event>
<event>
      6   9999  3.45752E-01  2.77020E+01 -1.00000E+00  1.50112E-01
      21    -1     0     0   501   502  0.000000000E+00  0.000000000E+00  7.373374355E+01  7.373374355E+01  0.000000000E+00  0.00000E+00  9.000E+00
      21    -1     0     0   511   503  0.000000000E+00  0.000000000E+00 -1.668562441E+03  1.668562441E+03  0.000000000E+00  0.00000E+00  9.000E+00
      25     1     1     2     0     0  1.726179748E+01 -2.790841807E+01 -8.819689597E+02  8.913896058E+02  1.250173351E+02  0.00000E+00  9.000E+00
       5     1     1     2   501     0 -2.500953436E+00 -3.272140285E+00  6.679935306E+01  6.709454329E+01  4.750000000E+00  0.00000E+00  9.000E+00
      -5     1     1     2     0   503  1.289603898E+01  3.276121633E+01 -6.613284778E+02  6.622820571E+02  4.750000000E+00  0.00000E+00  9.000E+00
      21     1     1     2   511   502 -2.765688302E+01 -1.580657975E+00 -1.183306134E+02  1.215299787E+02  0.000000000E+00  0.00000E+00  9.000E+00
#rwgt            1           9   1.3639708633965759                3     1585063           0
</event>
<event>
      6   9999  3.45752E-01  2.25155E+01 -1.00000E+00  1.56380E-01
      21    -1     0     0   502   512  0.000000000E+00  0.000000000E+00  8.744100904E+01  8.744100904E+01  0.000000000E+00  0.00000E+00  9.000E+00
      21    -1     0     0   501   502  0.000000000E+00  0.000000000E+00 -1.124423168E+03  1.124423168E+03  0.000000000E+00  0.00000E+00  9.000E+00
      25     1     1     2     0     0  5.454009954E+01 -1.415312340E+01 -6.788072584E+02  6.925170360E+02  1.250024709E+02  0.00000E+00  9.000E+00
       5     1     1     2   501     0 -1.286529332E+00  2.728178108E+00 -3.751862350E+02  3.752284258E+02  4.750000000E+00  0.00000E+00  9.000E+00
      -5     1     1     2     0   503 -7.429105333E+01  3.401656460E+00 -3.874283163E+01  8.398988852E+01  4.750000000E+00  0.00000E+00  9.000E+00
      21     1     1     2   503   512  2.103748312E+01  8.023288831E+00  5.575416566E+01  6.012882710E+01  2.132480600E-06  0.00000E+00  9.000E+00
#rwgt            1           9   1.1973513162597724E-003           3     1587366           0
</event>
<event>
      6   9999  3.45752E-01  8.75823E+00 -1.00000E+00  1.93471E-01
      21    -1     0     0   501   502  0.000000000E+00  0.000000000E+00  7.489370924E+00  7.489370924E+00  0.000000000E+00  0.00000E+00  9.000E+00
      21    -1     0     0   511   503  0.000000000E+00  0.000000000E+00 -8.488740032E+02  8.488740032E+02  0.000000000E+00  0.00000E+00  9.000E+00
      25     1     1     2     0     0 -1.287509134E+01  1.211254847E+01 -6.295709924E+02  6.421034814E+02  1.249990582E+02  0.00000E+00  9.000E+00
       5     1     1     2   501     0 -3.747308943E-01  2.972553838E-01 -8.126037286E+00  9.424636119E+00  4.750000000E+00  0.00000E+00  9.000E+00
      -5     1     1     2     0   503  1.113299869E+01 -3.911241293E+00 -1.075776375E+02  1.083270606E+02  4.750000000E+00  0.00000E+00  9.000E+00
      21     1     1     2   511   502  2.116823543E+00 -8.498562558E+00 -9.610996515E+01  9.650819607E+01  0.000000000E+00  0.00000E+00  9.000E+00
#rwgt            1           9  0.11263214164141218                3     1589383           0
</event>
<event>
      6   9999  3.45752E-01  6.84756E+01 -1.00000E+00  1.27865E-01
      21    -1     0     0   512   502  0.000000000E+00  0.000000000E+00  1.087543237E+03  1.087543237E+03  0.000000000E+00  0.00000E+00  9.000E+00
      21    -1     0     0   502   503  0.000000000E+00  0.000000000E+00 -2.600899454E+02  2.600899454E+02  0.000000000E+00  0.00000E+00  9.000E+00
      25     1     1     2     0     0  3.276831288E+01  5.361653788E+01 -3.555359073E+01  1.443522589E+02  1.250000855E+02  0.00000E+00  9.000E+00
       5     1     1     2   501     0 -2.772679205E+01  2.810172206E+01 -3.834502247E+01  5.523934312E+01  4.750000000E+00  0.00000E+00  9.000E+00
      -5     1     1     2     0   503  5.122972380E+00 -1.400130167E+01 -1.216993982E+02  1.227012116E+02  4.750000000E+00  0.00000E+00  9.000E+00
      21     1     1     2   512   501 -1.016449321E+01 -6.771695827E+01  1.023051303E+03  1.025340369E+03  2.642899792E-05  0.00000E+00  9.000E+00
#rwgt            1           9   46343.107189259179                3     1591750           0
</event>
<event>
      6   9999  3.45752E-01  1.20715E+01 -1.00000E+00  1.78974E-01
      -3    -1     0     0     0   502  0.000000000E+00  0.000000000E+00  5.169680758E+01  5.169680758E+01  0.000000000E+00  0.00000E+00  9.000E+00
      21    -1     0     0   502   503  0.000000000E+00  0.000000000E+00 -7.915753642E+02  7.915753642E+02  0.000000000E+00  0.00000E+00  9.000E+00
      25     1     1     2     0     0 -3.008293593E+01 -3.070114469E+01 -4.942263204E+02  5.115978971E+02  1.250008372E+02  0.00000E+00  9.000E+00
       5     1     1     2   501     0  1.511330344E+01  1.141499299E+01 -1.225791481E+02  1.241246311E+02  4.750000000E+00  0.00000E+00  9.000E+00
      -5     1     1     2     0   503  2.898233893E+00  1.933161827E+01 -1.638208804E+02  1.650513695E+02  4.750000000E+00  0.00000E+00  9.000E+00
      -3     1     1     2     0   501  1.207139859E+01 -4.546658128E-02  4.074779218E+01  4.249827407E+01  1.507891493E-06  0.00000E+00  9.000E+00
#rwgt            1           9   9.3437436729668942E-005           3     1592618           0
</event>
<event>
      6   9999  3.45752E-01  1.01739E+01 -1.00000E+00  1.86409E-01
      21    -1     0     0   501   502  0.000000000E+00  0.000000000E+00  7.848690221E+00  7.848690221E+00  0.000000000E+00  0.00000E+00  9.000E+00
      21    -1     0     0   502   511  0.000000000E+00  0.000000000E+00 -8.853002543E+02  8.853002543E+02  0.000000000E+00  0.00000E+00  9.000E+00
      25     1     1     2     0     0 -7.079715727E-01  2.141136108E+00 -6.282563797E+02  6.405781087E+02  1.250165950E+02  0.00000E+00  9.000E+00
       5     1     1     2   501     0 -1.519376798E-01 -1.818973179E-01 -4.707709052E+00  6.691875389E+00  4.750000000E+00  0.00000E+00  9.000E+00
      -5     1     1     2     0   503 -4.143055601E+00 -1.081799743E+01 -7.115171400E+01  7.224488137E+01  4.750000000E+00  0.00000E+00  9.000E+00
      21     1     1     2   503   511  5.002964854E+00  8.858758642E+00 -1.733357613E+02  1.736340791E+02  2.697398305E-06  0.00000E+00  9.000E+00
#rwgt            1           9   5.3611502206346747E-004           3     1594476           0
</event>
<event>
      6   9999  3.45752E-01  2.48674E+01 -1.00000E+00  1.53310E-01
      -3    -1     0     0     0   502  0.000000000E+00  0.000000000E+00  1.512327656E+02  1.512327656E+02  0.000000000E+00  0.00000E+00  9.000E+00
      21    -1     0     0   502   503  0.000000000E+00  0.000000000E+00 -1.690195331E+03  1.690195331E+03  0.000000000E+00  0.00000E+00  9.000E+00
      25     1     1     2     0     0  1.776137984E+01  4.409663787E+01 -1.049519714E+02  1.699901935E+02  1.249870774E+02  0.00000E+00  9.000E+00
       5     1     1     2   501     0  6.724368029E+00 -1.170065519E+01  6.995780366E+01  7.140573682E+01  4.750000000E+00  0.00000E+00  9.000E+00
      -5     1     1     2     0   503 -6.716623561E-01 -2.523523657E+01 -1.548667993E+03  1.548881010E+03  4.750000000E+00  0.00000E+00  9.000E+00
      -3     1     1     2     0   501 -2.381408551E+01 -7.160746114E+00  4.469959537E+01  5.115115620E+01  1.066240300E-06  0.00000E+00  9.000E+00
#rwgt            1           9   4.0846046712533063E-004           3     1596479           0
</event>
<event>
      6   9999  3.45752E-01  1.28068E+01 -1.00000E+00  1.76544E-01
      21    -1     0     0   511   502  0.000000000E+00  0.000000000E+00  1.967634991E+01  1.967634991E+01  0.000000000E+00  0.00000E+00  9.000E+00
      21    -1     0     0   502   503  0.000000000E+00  0.000000000E+00 -1.265639679E+03  1.265639679E+03  0.000000000E+00  0.00000E+00  9.000E+00
      25     1     1     2     0     0  4.633552735E+00 -1.762555761E+01 -1.212728349E+03  1.219289968E+03  1.250033878E+02  0.00000E+00  9.000E+00
       5     1     1     2   501     0 -7.955473775E-01  1.127325501E+00  1.143193827E+01  1.245614190E+01  4.750000000E+00  0.00000E+00  9.000E+00
      -5     1     1     2     0   503 -9.810337465E+00  5.169250776E+00 -3.635009160E+01  3.829955005E+01  4.750000000E+00  0.00000E+00  9.000E+00
      21     1     1     2   511   501  5.972332107E+00  1.132898133E+01 -8.316826859E+00  1.527036928E+01  2.665600750E-07  0.00000E+00  9.000E+00
#rwgt            1           9   1.0855113934462512E-005           3     1599471           0
</event>
<event>
      6   9999  3.45752E-01  2.97951E+01 -1.00000E+00  1.48031E-01
      21    -1     0     0   502   503  0.000000000E+00  0.000000000E+00  4.720075892E+01  4.720075892E+01  0.000000000E+00  0.00000E+00  9.000E+00
      21    -1     0     0   512   502  0.000000000E+00  0.000000000E+00 -1.322080301E+03  1.322080301E+03  0.000000000E+00  0.00000E+00  9.000E+00
      25     1     1     2     0     0 -1.874305895E+02  4.205210812E+01 -3.667206279E+02  4.324431849E+02  1.249979342E+02  0.00000E+00  9.000E+00
       5     1     1     2   501     0  1.576613295E+01 -9.593040419E+00 -3.779960902E+02  3.784761606E+02  4.750000000E+00  0.00000E+00  9.000E+00
      -5     1     1     2     0   503  1.429050723E+02 -2.467150713E+01 -4.516950445E+02  4.744275695E+02  4.750000000E+00  0.00000E+00  9.000E+00
      21     1     1     2   512   501  2.875938428E+01 -7.787560573E+00 -7.846777907E+01  8.393414464E+01  0.000000000E+00  0.00000E+00  9.000E+00
#rwgt            1           9  0.61229364303954437                3     1601767           0
</event>
<event>
      6   9999  3.45752E-01  9.35591E+00 -1.00000E+00  1.90292E-01
      21    -1     0     0   511   503  0.000000000E+00  0.000000000E+00  1.785521940E+02  1.785521940E+02  0.000000000E+00  0.00000E+00  9.000E+00
      21    -1     0     0   501   502  0.000000000E+00  0.000000000E+00 -4.651625927E+01  4.651625927E+01  0.000000000E+00  0.00000E+00  9.000E+00
      25     1     1     2     0     0 -9.845096000E+00  3.019198525E+00  5.129989511E+01  1.355180586E+02  1.250096936E+02  0.00000E+00  9.000E+00
       5     1     1     2   501     0  2.922927473E+00 -4.982189909E+00  2.089874098E+00  7.765036706E+00  4.750000000E+00  0.00000E+00  9.000E+00
      -5     1     1     2     0   503 -2.412519190E+00  1.333192017E+00  4.638304260E+00  7.188464106E+00  4.750000000E+00  0.00000E+00  9.000E+00
      21     1     1     2   511   502  9.334687716E+00  6.297993662E-01  7.400786130E+01  7.459689387E+01  9.536743164E-07  0.00000E+00  9.000E+00
#rwgt            1           9   784.19089624672279                3     1603737           0
</event>
<event>
      6   9999 -3.45752E-01  9.36901E+01 -1.00000E+00  1.21650E-01
      21    -1     0     0   512   503  0.000000000E+00  0.000000000E+00  1.053852984E+03  1.053852984E+03  0.000000000E+00  0.00000E+00  9.000E+00
      21    -1     0     0   501   502  0.000000000E+00  0.000000000E+00 -1.494615657E+03  1.494615657E+03  0.000000000E+00  0.00000E+00  9.000E+00
      25     1     1     2     0     0  2.578821894E+00 -1.591709469E+02 -4.088642564E+02  4.562277201E+02  1.250268444E+02  0.00000E+00  9.000E+00
       5     1     1     2   501     0  7.571672446E+01  5.663898816E+01 -8.572180326E+02  8.624304698E+02  4.750000000E+00  0.00000E+00  9.000E+00
      -5     1     1     2     0   503 -3.111142883E+01  1.834732501E+02 -1.567031346E+02  2.433285626E+02  4.750000000E+00  0.00000E+00  9.000E+00
      21     1     1     2   512   502 -4.718411752E+01 -8.094129142E+01  9.820227504E+02  9.864818883E+02  0.000000000E+00  0.00000E+00  9.000E+00
#rwgt            1           9 -0.78332701013402461                3     1605902           0
</event>
<event>
      6   9999 -3.45752E-01  8.79238E+00 -1.00000E+00  1.93280E-01
      21    -1     0     0   501   511  0.000000000E+00  0.000000000E+00  5.132729394E+01  5.132729394E+01  0.000000000E+00  0.00000E+00  9.000E+00
      21    -1     0     0   502   503  0.000000000E+00  0.000000000E+00 -1.206270628E+03  1.206270628E+03  0.000000000E+00  0.00000E+00  9.000E+00
      25     1     1     2     0     0 -2.207716936E+01  7.465061417E+01 -4.001888345E+02  4.264242449E+02  1.250056710E+02  0.00000E+00  9.000E+00
       5     1     1     2   501     0  7.425807424E+00 -8.313377670E+00  3.157176478E+01  3.381706219E+01  4.750000000E+00  0.00000E+00  9.000E+00
      -5     1     1     2     0   503  1.760649816E+01 -7.461812503E+01 -7.846561036E+02  7.884070122E+02  4.750000000E+00  0.00000E+00  9.000E+00
      21     1     1     2   502   511 -2.955136222E+00  8.280888530E+00 -1.670160250E+00  8.949602237E+00  6.989264130E-08  0.00000E+00  9.000E+00
#rwgt            1           9  -3.0679372144469933E-003           3     1606915           0
</event>
<event>
      6   9999  3.45752E-01  2.20418E+01 -1.00000E+00  1.57053E-01
      21    -1     0     0   501   512  0.000000000E+00  0.000000000E+00  3.247499549E+03  3.247499549E+03  0.000000000E+00  0.00000E+00  9.000E+00
      21    -1     0     0   502   503  0.000000000E+00  0.000000000E+00 -2.255027837E+01  2.255027837E+01  0.000000000E+00  0.00000E+00  9.000E+00
      25     1     1     2     0     0  8.707728290E+00  1.781668704E+00  1.795985842E+03  1.800349902E+03  1.249625067E+02  0.00000E+00  9.000E+00
       5     1     1     2   501     0 -2.912999665E+00  5.756478350E+00  1.026300296E+03  1.026331566E+03  4.750000000E+00  0.00000E+00  9.000E+00
      -5     1     1     2     0   503 -2.698976909E+01 -1.487424244E+00 -1.067136326E+01  2.944657128E+01  4.750000000E+00  0.00000E+00  9.000E+00
      21     1     1     2   502   512  2.119504047E+01 -6.050722810E+00  4.133344961E+02  4.139217881E+02  5.394796609E-06  0.00000E+00  9.000E+00
#rwgt            1           9   1.3318971208009260E-003           3     1610603           0
</event>
<event>
      6   9999  3.45752E-01  4.31256E+00 -1.00000E+00  2.41276E-01
      21    -1     0     0   501   502  0.000000000E+00  0.000000000E+00  3.815932820E+01  3.815932820E+01  0.000000000E+00  0.00000E+00  9.000E+00
      21    -1     0     0   502   511  0.000000000E+00  0.000000000E+00 -5.691499033E+02  5.691499033E+02  0.000000000E+00  0.00000E+00  9.000E+00
      25     1     1     2     0     0  6.518147134E+01 -6.778741289E+00 -1.609914208E+02  2.140951984E+02  1.249957634E+02  0.00000E+00  9.000E+00
       5     1     1     2   501     0 -5.617975969E-01 -6.968768351E-01  3.682044561E+00  6.076282253E+00  4.750000000E+00  0.00000E+00  9.000E+00
      -5     1     1     2     0   503 -6.384275688E+01  3.233617849E+00 -1.464312695E+02  1.598469051E+02  4.750000000E+00  0.00000E+00  9.000E+00
      21     1     1     2   503   511 -7.769168586E-01  4.242000275E+00 -2.272499293E+02  2.272908457E+02  2.697398305E-06  0.00000E+00  9.000E+00
#rwgt            1           9   3.4956192138083653E-002           3     1612702           0
</event>
<event>
      6   9999  3.45752E-01  3.32084E+01 -1.00000E+00  1.45039E-01
      21    -1     0     0   501   502  0.000000000E+00  0.000000000E+00  2.606681959E+01  2.606681959E+01  0.000000000E+00  0.00000E+00  9.000E+00
      21    -1     0     0   502   512  0.000000000E+00  0.000000000E+00 -1.286705073E+03  1.286705073E+03  0.000000000E+00  0.00000E+00  9.000E+00
      25     1     1     2     0     0  1.273600211E+02  2.688250455E+01 -8.684617063E+02  8.870153265E+02  1.250088405E+02  0.00000E+00  9.000E+00
       5     1     1     2   501     0 -3.376393270E+00  5.021605009E+00 -2.563824192E+00  8.108775670E+00  4.750000000E+00  0.00000E+00  9.000E+00
      -5     1     1     2     0   503 -9.081843736E+01 -3.021110128E+01 -1.667524390E+02  1.923269030E+02  4.750000000E+00  0.00000E+00  9.000E+00
      21     1     1     2   503   512 -3.316519045E+01 -1.693008286E+00 -2.228602836E+02  2.253208870E+02  3.814697266E-06  0.00000E+00  9.000E+00
#rwgt            1           9   2.5355208434147693E-003           3     1617900           0
</event>
<event>
      6   9999 -3.45752E-01  1.33560E+02 -1.00000E+00  1.15326E-01
      21    -1     0     0   511   503  0.000000000E+00  0.000000000E+00  7.919752898E+01  7.919752898E+01  0.000000000E+00  0.00000E+00  9.000E+00
      21    -1     0     0   501   502  0.000000000E+00  0.000000000E+00 -9.440090093E+02  9.440090093E+02  0.000000000E+00  0.00000E+00  9.000E+00
      25     1     1     2     0     0 -3.699405056E+01 -9.165532506E+01 -4.052029731E+02  4.354137361E+02  1.250056550E+02  0.00000E+00  9.000E+00
       5     1     1     2   501     0  6.531277303E+01 -9.838672054E+00 -2.920090203E+02  2.994234263E+02  4.750000000E+00  0.00000E+00  9.000E+00
      -5     1     1     2     0   503 -5.451849896E+01 -2.947144667E+01 -1.383107834E+02  1.516353132E+02  4.750000000E+00  0.00000E+00  9.000E+00
      21     1     1     2   511   502  2.619977649E+01  1.309654438E+02 -2.928870352E+01  1.367340627E+02  2.900487199E-06  0.00000E+00  9.000E+00
#rwgt            1           9  -12.300019570751379                3     1619186           0
</event>
<event>
      6   9999  3.45752E-01  2.24919E+01 -1.00000E+00  1.56413E-01
      21    -1     0     0   512   502  0.000000000E+00  0.000000000E+00  2.539737384E+01  2.539737384E+01  0.000000000E+00  0.00000E+00  9.000E+00
      21    -1     0     0   502   503  0.000000000E+00  0.000000000E+00 -1.023347618E+03  1.023347618E+03  0.000000000E+00  0.00000E+00  9.000E+00
      25     1     1     2     0     0 -1.786486670E+01 -7.189639221E+01 -6.018276652E+02  6.191207957E+02  1.250031057E+02  0.00000E+00  9.000E+00
       5     1     1     2   501     0 -5.002568094E+00  1.311804509E+00  6.563924486E+00  9.612186185E+00  4.750000000E+00  0.00000E+00  9.000E+00
      -5     1     1     2     0   503  9.701147012E-01  7.572201249E+01 -3.819694284E+02  3.894328839E+02  4.750000000E+00  0.00000E+00  9.000E+00
      21     1     1     2   512   501  2.189732010E+01 -5.137424782E+00 -2.071707549E+01  3.057912650E+01  5.840038640E-07  0.00000E+00  9.000E+00
#rwgt            1           9   1.0598521290991001E-003           3     1619692           0
</event>
<event>
      6   9999  3.45752E-01  8.16551E+00 -1.00000E+00  1.96968E-01
      21    -1     0     0   511   503  0.000000000E+00  0.000000000E+00  1.643618972E+02  1.643618972E+02  0.000000000E+00  0.00000E+00  9.000E+00
      21    -1     0     0   501   502  0.000000000E+00  0.000000000E+00 -8.068132092E+02  8.068132092E+02  0.000000000E+00  0.00000E+00  9.000E+00
      25     1     1     2     0     0 -9.216768361E+00 -2.754028153E+00 -7.694366464E+02  7.795839704E+02  1.250035224E+02  0.00000E+00  9.000E+00
       5     1     1     2   501     0  5.899081732E-01  2.478500919E-02 -1.123623834E+01  1.221327794E+01  4.750000000E+00  0.00000E+00  9.000E+00
      -5     1     1     2     0   503  2.153578089E+00  7.706412266E+00 -1.941508529E+01  2.152985661E+01  4.750000000E+00  0.00000E+00  9.000E+00
      21     1     1     2   511   502  6.473282098E+00 -4.977169122E+00  1.576366581E+02  1.578480014E+02  3.303624740E-06  0.00000E+00  9.000E+00
#rwgt            1           9   2.2670870053116028E-003           3     1621247           0
</event>
<event>
      6   9999  3.45752E-01  2.68482E+01 -1.00000E+00  1.51025E-01
      21    -1     0     0   512   502  0.000000000E+00  0.000000000E+00  3.428778015E+01  3.428778015E+01  0.000000000E+00  0.00000E+00  9.000E+00
      21    -1     0     0   502   503  0.000000000E+00  0.000000000E+00 -1.728842822E+03  1.728842822E+03  0.000000000E+00  0.00000E+00  9.000E+00
      25     1     1     2     0     0 -2.051652385E+01  5.150576668E+01 -1.182654127E+03  1.190535429E+03  1.250202064E+02  0.00000E+00  9.000E+00
       5     1     1     2   501     0  4.669636791E+00 -2.011923416E+01 -3.215312123E+02  3.222289126E+02  4.750000000E+00  0.00000E+00  9.000E+00
      -5     1     1     2     0   503  1.217825203E+01 -4.790113465E+00 -2.140890249E+02  2.145412037E+02  4.750000000E+00  0.00000E+00  9.000E+00
      21     1     1     2   512   501  3.668635031E+00 -2.659641906E+01  2.371932281E+01  3.582505637E+01  1.752011592E-06  0.00000E+00  9.000E+00
#rwgt            1           9   1.1000032227768965E-003           3     1623614           0
</event>
<event>
      6   9999  3.45752E-01  2.48442E+01 -1.00000E+00  1.53338E-01
      21    -1     0     0   501   502  0.000000000E+00  0.000000000E+00  2.185173815E+02  2.185173815E+02  0.000000000E+00  0.00000E+00  9.000E+00
      21    -1     0     0   511   503  0.000000000E+00  0.000000000E+00 -1.417806678E+02  1.417806678E+02  0.000000000E+00  0.00000E+00  9.000E+00
      25     1     1     2     0     0 -3.038610934E+01 -3.265884776E+01  1.335118890E+02  1.882829664E+02  1.250405333E+02  0.00000E+00  9.000E+00
       5     1     1     2   501     0 -3.151331783E+00  8.174178048E-01  3.911039847E+01  3.953207347E+01  4.750000000E+00  0.00000E+00  9.000E+00
      -5     1     1     2     0   503  9.921504845E+00  3.955656146E+01 -8.889346175E+00  4.200881799E+01  4.750000000E+00  0.00000E+00  9.000E+00
      21     1     1     2   511   502  2.361593628E+01 -7.715131510E+00 -8.699622757E+01  9.047419142E+01  9.536743164E-07  0.00000E+00  9.000E+00
#rwgt            1           9  0.50078426546091470                3     1624640           0
</event>
<event>
      6   9999  3.45752E-01  1.88775E+01 -1.00000E+00  1.62149E-01
      21    -1     0     0   501   512  0.000000000E+00  0.000000000E+00  7.909457334E+02  7.909457334E+02  0.000000000E+00  0.00000E+00  9.000E+00
      21    -1     0     0   502   503  0.000000000E+00  0.000000000E+00 -7.750064968E+02  7.750064968E+02  0.000000000E+00  0.00000E+00  9.000E+00
      25     1     1     2     0     0  1.624732467E+01 -4.174703322E+00 -6.968514651E+02  7.081720526E+02  1.249971519E+02  0.00000E+00  9.000E+00
       5     1     1     2   501     0 -1.260993503E+01  2.276883896E+01 -4.590148134E+01  5.298055283E+01  4.750000000E+00  0.00000E+00  9.000E+00
      -5     1     1     2     0   503 -6.370243304E-01  4.342313469E-02 -2.268938924E+01  2.319005325E+01  4.750000000E+00  0.00000E+00  9.000E+00
      21     1     1     2   502   512 -3.000365306E+00 -1.863755877E+01  7.813815723E+02  7.816095715E+02  1.078959322E-05  0.00000E+00  9.000E+00
#rwgt            1           9   1.7469143325167974E-004           3     1625755           0
</event>
<event>
      6   9999 -3.45752E-01  1.52824E+01 -1.00000E+00  1.69672E-01
      21    -1     0     0   501   502  0.000000000E+00  0.000000000E+00  2.388298211E+01  2.388298211E+01  0.000000000E+00  0.00000E+00  9.000E+00
      21    -1     0     0   502   511  0.000000000E+00  0.000000000E+00 -1.138001340E+03  1.138001340E+03  0.000000000E+00  0.00000E+00  9.000E+00
      25     1     1     2     0     0 -1.149632276E+01  6.096241423E+00 -1.030190389E+03  1.037827869E+03  1.250004735E+02  0.00000E+00  9.000E+00
       5     1     1     2   501     0 -3.768979858E+00 -4.980119734E+00  1.672775875E+01  1.847666676E+01  4.750000000E+00  0.00000E+00  9.000E+00
      -5     1     1     2     0   503  8.595916815E-02  6.557401684E-01 -1.182487781E+00  4.939449514E+00  4.750000000E+00  0.00000E+00  9.000E+00
      21     1     1     2   503   511  1.517934345E+01 -1.771861857E+00 -9.947323963E+01  1.006403367E+02  1.907348633E-06  0.00000E+00  9.000E+00
#rwgt            1           9  -6.9089308820213354E-005           3     1627906           0
</event>
<event>
      6   9999 -3.45752E-01  2.04586E+01 -1.00000E+00  1.59462E-01
      21    -1     0     0   501   502  0.000000000E+00  0.000000000E+00  1.651054099E+01  1.651054099E+01  0.000000000E+00  0.00000E+00  9.000E+00
      21    -1     0     0   512   503  0.000000000E+00  0.000000000E+00 -1.521375853E+03  1.521375853E+03  0.000000000E+00  0.00000E+00  9.000E+00
      25     1     1     2     0     0 -2.760043943E+01 -1.792115864E+01 -7.286960101E+02  7.400714375E+02  1.249996212E+02  0.00000E+00  9.000E+00
       5     1     1     2   501     0 -4.941653548E+00 -1.084667547E+00  3.673501030E+00  7.851977668E+00  4.750000000E+00  0.00000E+00  9.000E+00
      -5     1     1     2     0   503  1.222810519E+01  2.143438271E+01 -2.716131067E+01  3.700349465E+01  4.750000000E+00  0.00000E+00  9.000E+00
      21     1     1     2   512   502  2.031398779E+01 -2.428556527E+00 -7.526814924E+02  7.529594843E+02  1.078959322E-05  0.00000E+00  9.000E+00
#rwgt            1           9  -2.8470915015387725E-004           3     1630344           0
</event>
<event>
      6   9999  3.45752E-01  1.74606E+01 -1.00000E+00  1.64846E-01
      21    -1     0     0   502   511  0.000000000E+00  0.000000000E+00  1.335038119E+01  1.335038119E+01  0.000000000E+00  0.00000E+00  9.000E+00
      21    -1     0     0   501   502  0.000000000E+00  0.000000000E+00 -9.007414126E+02  9.007414126E+02  0.000000000E+00  0.00000E+00  9.000E+00
      25     1     1     2     0     0  1.699914263E+01  2.190025801E+01 -3.771599426E+02  3.982998353E+02  1.249981774E+02  0.00000E+00  9.000E+00
       5     1     1     2   501     0 -2.340914794E+01 -3.850945551E+00 -4.510078450E+02  4.516563481E+02  4.750000000E+00  0.00000E+00  9.000E+00
      -5     1     1     2     0   503  7.294710570E-01 -1.538593579E+00 -2.717540365E+01  2.763990705E+01  4.750000000E+00  0.00000E+00  9.000E+00
      21     1     1     2   503   511  5.680534251E+00 -1.651071887E+01 -3.204784012E+01  3.649570335E+01  4.768371582E-07  0.00000E+00  9.000E+00
#rwgt            1           9   1.7074214832880458E-005           3     1632131           0
</event>
<event>
      6   9999  3.45752E-01  1.87808E+01 -1.00000E+00  1.62324E-01
      21    -1     0     0   501   502  0.000000000E+00  0.000000000E+00  5.097240977E+01  5.097240977E+01  0.000000000E+00  0.00000E+00  9.000E+00
      21    -1     0     0   502   512  0.000000000E+00  0.000000000E+00 -1.659760039E+03  1.659760039E+03  0.000000000E+00  0.00000E+00  9.000E+00
      25     1     1     2     0     0  5.681268657E+01  1.474773858E+02 -3.419166230E+02  3.968697554E+02  1.249854591E+02  0.00000E+00  9.000E+00
       5     1     1     2   501     0  1.806564744E+00 -4.703682068E-01  1.487373230E+01  1.572499078E+01  4.750000000E+00  0.00000E+00  9.000E+00
      -5     1     1     2     0   503 -5.614648244E+01 -1.656243412E+02 -9.576193026E+02  9.734686133E+02  4.750000000E+00  0.00000E+00  9.000E+00
      21     1     1     2   503   512 -2.472768868E+00  1.861732358E+01 -3.241254356E+02  3.246690890E+02  0.000000000E+00  0.00000E+00  9.000E+00
#rwgt            1           9   2.4345941628702372E-004           3     1633790           0
</event>
<event>
      6   9999  3.45752E-01  6.31198E+01 -1.00000E+00  1.29587E-01
      21    -1     0     0   501   511  0.000000000E+00  0.000000000E+00  2.779131482E+01  2.779131482E+01  0.000000000E+00  0.00000E+00  9.000E+00
      21    -1     0     0   502   503  0.000000000E+00  0.000000000E+00 -8.304890577E+02  8.304890577E+02  0.000000000E+00  0.00000E+00  9.000E+00
      25     1     1     2     0     0 -5.351247360E+01  5.700786708E+01 -6.541717005E+02  6.705812358E+02  1.250003936E+02  0.00000E+00  9.000E+00
       5     1     1     2   501     0 -4.145321712E+00 -1.788163662E+01 -3.576587907E+01  4.048082541E+01  4.750000000E+00  0.00000E+00  9.000E+00
      -5     1     1     2     0   503  1.123442449E+01  3.640319812E+00 -6.959720985E+01  7.075166670E+01  4.750000000E+00  0.00000E+00  9.000E+00
      21     1     1     2   502   511  4.642337082E+01 -4.276655027E+01 -4.316295347E+01  7.646664458E+01  9.536743164E-07  0.00000E+00  9.000E+00
#rwgt            1           9   1.9127243869139431E-003           3     1636241           0
</event>
<event>
      6   9999  3.45752E-01  5.62045E+00 -1.00000E+00  2.18089E-01
      21    -1     0     0   501   512  0.000000000E+00  0.000000000E+00  9.991364060E+01  9.991364060E+01  0.000000000E+00  0.00000E+00  9.000E+00
      21    -1     0     0   502   503  0.000000000E+00  0.000000000E+00 -1.615652177E+03  1.615652177E+03  0.000000000E+00  0.00000E+00  9.000E+00
      25     1     1     2     0     0  3.531002731E+00  7.807423163E+00 -2.762120966E+02  3.033036004E+02  1.250061115E+02  0.00000E+00  9.000E+00
       5     1     1     2   501     0 -6.569554486E+00  1.433271551E+00  7.556510568E+01  7.601224251E+01  4.750000000E+00  0.00000E+00  9.000E+00
      -5     1     1     2     0   503  8.201847314E+00 -7.020363043E+00 -1.324896154E+03  1.324948654E+03  4.750000000E+00  0.00000E+00  9.000E+00
      21     1     1     2   502   512 -5.163295558E+00 -2.220331671E+00  9.804608378E+00  1.130132024E+01  6.307962682E-07  0.00000E+00  9.000E+00
#rwgt            1           9   5.2923685538887810E-004           3     1636857           0
</event>
<event>
      6   9999  3.45752E-01  2.17893E+01 -1.00000E+00  1.57421E-01
      21    -1     0     0   501   502  0.000000000E+00  0.000000000E+00  2.479998119E+01  2.479998119E+01  0.000000000E+00  0.00000E+00  9.000E+00
      21    -1     0     0   502   511  0.000000000E+00  0.000000000E+00 -2.097201987E+03  2.097201987E+03  0.000000000E+00  0.00000E+00  9.000E+00
      25     1     1     2     0     0 -2.254299799E+01 -2.659718204E+00 -4.405949054E+02  4.585464803E+02  1.250029724E+02  0.00000E+00  9.000E+00
       5     1     1     2   501     0  3.026492918E-01  1.646329803E+00  1.491920055E+01  1.574633429E+01  4.750000000E+00  0.00000E+00  9.000E+00
      -5     1     1     2     0   503  1.954646536E+01  2.263552659E+01 -6.073120430E+02  6.080665354E+02  4.750000000E+00  0.00000E+00  9.000E+00
      21     1     1     2   503   511  2.693883342E+00 -2.162213819E+01 -1.039414258E+03  1.039642618E+03  1.525878906E-05  0.00000E+00  9.000E+00
#rwgt            1           9   1.9976290535511669E-003           3     1644779           0
</event>
<event>
      6   9999 -3.45752E-01  1.47023E+01 -1.00000E+00  1.71129E-01
      21    -1     0     0   501   502  0.000000000E+00  0.000000000E+00  2.241169307E+01  2.241169307E+01  0.000000000E+00  0.00000E+00  9.000E+00
      21    -1     0     0   512   503  0.000000000E+00  0.000000000E+00 -1.261985461E+03  1.261985461E+03  0.000000000E+00  0.00000E+00  9.000E+00
      25     1     1     2     0     0 -1.682971321E+01  2.822957385E+01 -7.499059240E+02  7.609622120E+02  1.249977802E+02  0.00000E+00  9.000E+00
       5     1     1     2   501     0  3.442716698E+00 -2.042892706E+00  1.418200259E+01  1.548281003E+01  4.750000000E+00  0.00000E+00  9.000E+00
      -5     1     1     2     0   503  1.654348831E+01 -4.054616170E+01 -2.637772274E+02  2.674297411E+02  4.750000000E+00  0.00000E+00  9.000E+00
      21     1     1     2   512   502 -3.156491803E+00  1.435948056E+01 -2.400726187E+02  2.405223905E+02  3.814697266E-06  0.00000E+00  9.000E+00
#rwgt            1           9  -1.1996430943253579E-003           3     1647133           0
</event>
<event>
      6   9999  3.45752E-01  5.16563E+00 -1.00000E+00  2.23536E-01
      21    -1     0     0   501   502  0.000000000E+00  0.000000000E+00  2.224404838E+01  2.224404838E+01  0.000000000E+00  0.00000E+00  9.000E+00
       2    -1     0     0   502     0  0.000000000E+00  0.000000000E+00 -1.952023153E+03  1.952023153E+03  0.000000000E+00  0.00000E+00  9.000E+00
      25     1     1     2     0     0 -2.037236270E+01  1.731146972E+01 -6.959322599E+02  7.075737646E+02  1.249968077E+02  0.00000E+00  9.000E+00
       5     1     1     2   501     0  4.512550687E+00  2.542500702E-01  1.542515351E+01  1.676083583E+01  4.750000000E+00  0.00000E+00  9.000E+00
      -5     1     1     2     0   503  1.217887642E+01 -2.118986153E+01 -4.815457706E+02  4.821889951E+02  4.750000000E+00  0.00000E+00  9.000E+00
       2     1     1     2   503     0  3.680935587E+00  3.624141738E+00 -7.677262273E+02  7.677436055E+02  1.078959322E-05  0.00000E+00  9.000E+00
#rwgt            1           9  0.78862888216696103                3     1649521           0
</event>
<event>
      6   9999  3.45752E-01  1.60449E+01 -1.00000E+00  1.67875E-01
      -2    -1     0     0     0   502  0.000000000E+00  0.000000000E+00  2.473516972E+01  2.473516972E+01  0.000000000E+00  0.00000E+00  9.000E+00
       2    -1     0     0   511     0  0.000000000E+00  0.000000000E+00 -1.127981293E+03  1.127981293E+03  0.000000000E+00  0.00000E+00  9.000E+00
      25     1     1     2     0     0 -8.294423395E+01 -9.237317348E+00 -2.417173648E+02  2.846365580E+02  1.250024470E+02  0.00000E+00  9.000E+00
       5     1     1     2   501     0  1.331628320E+01  2.592580098E+01 -2.919523038E+02  2.934419547E+02  4.750000000E+00  0.00000E+00  9.000E+00
      -5     1     1     2     0   502  5.904736549E+01 -4.626572950E+00 -4.152326688E+02  4.194624277E+02  4.750000000E+00  0.00000E+00  9.000E+00
      21     1     1     2   511   501  1.058058526E+01 -1.206191069E+01 -1.543437860E+02  1.551755224E+02  2.697398305E-06  0.00000E+00  9.000E+00
#rwgt            1           3   8.7385464234987709E-006           3     1654533           0
</event>
<event>
      6   9999  3.45752E-01  3.81121E+00 -1.00000E+00  2.52278E-01
      21    -1     0     0   512   502  0.000000000E+00  0.000000000E+00  1.972372917E+00  1.972372917E+00  0.000000000E+00  0.00000E+00  9.000E+00
      21    -1     0     0   502   503  0.000000000E+00  0.000000000E+00 -3.258587950E+03  3.258587950E+03  0.000000000E+00  0.00000E+00  9.000E+00
      25     1     1     2     0     0  8.258746869E+00  4.300076407E+00 -3.113625480E+03  3.116147625E+03  1.250027762E+02  0.00000E+00  9.000E+00
       5     1     1     2   501     0  6.629999434E-01 -7.873800728E-01 -1.224234938E+01  1.317183186E+01  4.750000000E+00  0.00000E+00  9.000E+00
      -5     1     1     2     0   503 -5.350145474E+00 -2.182660669E+00 -9.345984761E+01  9.375869922E+01  4.750000000E+00  0.00000E+00  9.000E+00
      21     1     1     2   512   501 -3.571601338E+00 -1.330035665E+00 -3.728790039E+01  3.748216705E+01  1.168007728E-06  0.00000E+00  9.000E+00
#rwgt            1           9   7.2270662519743179E-005           3     1658741           0
</event>
<event>
      6   9999  3.45752E-01  8.34106E+00 -1.00000E+00  1.95893E-01
      21    -1     0     0   501   502  0.000000000E+00  0.000000000E+00  1.012321430E+01  1.012321430E+01  0.000000000E+00  0.00000E+00  9.000E+00
       2    -1     0     0   502     0  0.000000000E+00  0.000000000E+00 -2.315191845E+03  2.315191845E+03  0.000000000E+00  0.00000E+00  9.000E+00
      25     1     1     2     0     0  4.173730685E+00 -1.623420187E+00 -6.844234576E+02  6.957591496E+02  1.250010778E+02  0.00000E+00  9.000E+00
       5     1     1     2   501     0  1.830723839E+00  1.476928887E+00  2.572948726E+00  5.891980470E+00  4.750000000E+00  0.00000E+00  9.000E+00
      -5     1     1     2     0   503  2.335806587E+00  2.622759517E-01 -3.291504074E+01  3.333897401E+01  4.750000000E+00  0.00000E+00  9.000E+00
       2     1     1     2   503     0 -8.340261110E+00 -1.157846517E-01 -1.590303081E+03  1.590324956E+03  0.000000000E+00  0.00000E+00  9.000E+00
#rwgt            1           9   6.6467619143524299E-004           3     1663103           0
</event>
<event>
      6   9999  3.45752E-01  2.94737E+01 -1.00000E+00  1.48337E-01
      21    -1     0     0   501   502  0.000000000E+00  0.000000000E+00  2.161059302E+02  2.161059302E+02  0.000000000E+00  0.00000E+00  9.000E+00
       2    -1     0     0   502     0  0.000000000E+00  0.000000000E+00 -2.821532241E+02  2.821532241E+02  0.000000000E+00  0.00000E+00  9.000E+00
      25     1     1     2     0     0  1.422069011E+00 -5.385941149E+00  6.929643877E+01  1.430364668E+02  1.250056150E+02  0.00000E+00  9.000E+00
       5     1     1     2   501     0  5.803564494E+00 -1.235869427E+00  7.010181950E+01  7.051266788E+01  4.750000000E+00  0.00000E+00  9.000E+00
      -5     1     1     2     0   503  2.224733646E+01  6.829322042E+00  3.509144705E+01  4.237399881E+01  4.750000000E+00  0.00000E+00  9.000E+00
       2     1     1     2   503     0 -2.947296996E+01 -2.075114658E-01 -2.405369992E+02  2.423360208E+02  2.697398305E-06  0.00000E+00  9.000E+00
#rwgt            1           9   2.4921447198716467E-004           3     1666424           0
</event>
<event>
      6   9999  3.45752E-01  8.41385E+01 -1.00000E+00  1.23711E-01
      21    -1     0     0   502   503  0.000000000E+00  0.000000000E+00  8.133483986E+01  8.133483986E+01  0.000000000E+00  0.00000E+00  9.000E+00
      21    -1     0     0   501   511  0.000000000E+00  0.000000000E+00 -2.219229002E+03  2.219229002E+03  0.000000000E+00  0.00000E+00  9.000E+00
      25     1     1     2     0     0 -2.587719289E+02 -5.514538405E+01 -1.113916532E+03  1.151710973E+03  1.249968032E+02  0.00000E+00  9.000E+00
       5     1     1     2   501     0  2.543225808E+01  8.099682486E+01 -2.933349599E+02  3.054099648E+02  4.750000000E+00  0.00000E+00  9.000E+00
      -5     1     1     2     0   503  1.580261713E+02  1.166076027E+01 -6.310800587E+01  1.706265720E+02  4.750000000E+00  0.00000E+00  9.000E+00
      21     1     1     2   502   511  7.531349954E+01 -3.751220108E+01 -6.675346648E+02  6.728163325E+02  1.078959322E-05  0.00000E+00  9.000E+00
#rwgt            1           9   7.2301801742603736E-004           3     1667642           0
</event>
<event>
      6   9999  3.45752E-01  2.79944E+01 -1.00000E+00  1.49809E-01
      21    -1     0     0   512   502  0.000000000E+00  0.000000000E+00  5.242991226E+01  5.242991226E+01  0.000000000E+00  0.00000E+00  9.000E+00
      21    -1     0     0   502   503  0.000000000E+00  0.000000000E+00 -1.361974671E+03  1.361974671E+03  0.000000000E+00  0.00000E+00  9.000E+00
      25     1     1     2     0     0 -1.174087405E+02  8.179269422E+01 -8.684422544E+02  8.889822541E+02  1.249905667E+02  0.00000E+00  9.000E+00
       5     1     1     2   501     0  8.198226200E+00 -1.345086754E+01  2.887357690E+01  3.323225382E+01  4.750000000E+00  0.00000E+00  9.000E+00
      -5     1     1     2     0   503  1.010201756E+02 -4.157239852E+01 -4.279192673E+02  4.416682036E+02  4.750000000E+00  0.00000E+00  9.000E+00
      21     1     1     2   512   501  8.190338657E+00 -2.676942816E+01 -4.205681413E+01  5.052187196E+01  6.743495762E-07  0.00000E+00  9.000E+00
#rwgt            1           9   3.2774652578922266E-002           3     1669882           0
</event>
<event>
      6   9999  3.45752E-01  4.19453E+01 -1.00000E+00  1.39000E-01
      21    -1     0     0   501   502  0.000000000E+00  0.000000000E+00  5.222591885E+01  5.222591885E+01  0.000000000E+00  0.00000E+00  9.000E+00
      21    -1     0     0   511   503  0.000000000E+00  0.000000000E+00 -1.677705475E+03  1.677705475E+03  0.000000000E+00  0.00000E+00  9.000E+00
      25     1     1     2     0     0 -4.962122272E+01  2.493935975E+02 -5.785920116E+02  6.442458538E+02  1.249982883E+02  0.00000E+00  9.000E+00
       5     1     1     2   501     0  2.406707752E-01  7.163846183E-01  2.731403844E+00  5.531202067E+00  4.750000000E+00  0.00000E+00  9.000E+00
      -5     1     1     2     0   503  4.104386946E+01 -2.090014470E+02 -8.713016445E+02  8.969700788E+02  4.750000000E+00  0.00000E+00  9.000E+00
      21     1     1     2   511   502  8.336682489E+00 -4.110853504E+01 -1.783173043E+02  1.831842595E+02  1.907348633E-06  0.00000E+00  9.000E+00
#rwgt            1           9   4.2042112896895604E-004           3     1671602           0
</event>
<event>
      6   9999 -3.45752E-01  3.81369E+00 -1.00000E+00  2.52217E-01
      21    -1     0     0   512   502  0.000000000E+00  0.000000000E+00  1.326715579E+01  1.326715579E+01  0.000000000E+00  0.00000E+00  9.000E+00
      21    -1     0     0   502   503  0.000000000E+00  0.000000000E+00 -7.854695836E+02  7.854695836E+02  0.000000000E+00  0.00000E+00  9.000E+00
      25     1     1     2     0     0  2.845683272E+00  1.730373303E+00 -6.635056745E+02  6.751855703E+02  1.249987290E+02  0.00000E+00  9.000E+00
       5     1     1     2   501     0 -7.407789696E-01 -2.406621948E+00  2.054122708E+00  5.755215268E+00  4.750000000E+00  0.00000E+00  9.000E+00
      -5     1     1     2     0   503 -4.159565539E+00 -2.536634707E+00 -1.131080900E+02  1.133125722E+02  4.750000000E+00  0.00000E+00  9.000E+00
      21     1     1     2   512   501  2.054661237E+00  3.212883352E+00  2.357213969E+00  4.483381529E+00  3.757929865E-07  0.00000E+00  9.000E+00
#rwgt            1           9  -2.7654307849426363E-004           3     1673154           0
</event>
<event>
      6   9999 -3.45752E-01  3.62759E+00 -1.00000E+00  2.56975E-01
      21    -1     0     0   501   511  0.000000000E+00  0.000000000E+00  1.553330864E+01  1.553330864E+01  0.000000000E+00  0.00000E+00  9.000E+00
      21    -1     0     0   502   503  0.000000000E+00  0.000000000E+00 -1.760393091E+03  1.760393091E+03  0.000000000E+00  0.00000E+00  9.000E+00
      25     1     1     2     0     0 -2.237411991E+01 -2.909733784E+01 -1.690471473E+03  1.695484213E+03  1.250026327E+02  0.00000E+00  9.000E+00
       5     1     1     2   501     0  1.349328355E+00  3.422852107E+00  7.181832959E+00  9.363643960E+00  4.750000000E+00  0.00000E+00  9.000E+00
      -5     1     1     2     0   503  1.816756679E+01  2.343937886E+01 -4.490409121E+01  5.402226274E+01  4.750000000E+00  0.00000E+00  9.000E+00
      21     1     1     2   502   511  2.857224763E+00  2.235106876E+00 -1.666605131E+01  1.705628043E+01  3.371747881E-07  0.00000E+00  9.000E+00
#rwgt            1           9  -4.5962482980081223E-002           3     1677895           0
</event>
<event>
      6   9999  3.45752E-01  1.98775E+01 -1.00000E+00  1.60414E-01
      21    -1     0     0   502   503  0.000000000E+00  0.000000000E+00  3.969971223E+01  3.969971223E+01  0.000000000E+00  0.00000E+00  9.000E+00
      21    -1     0     0   512   502  0.000000000E+00  0.000000000E+00 -2.055047534E+03  2.055047534E+03  0.000000000E+00  0.00000E+00  9.000E+00
      25     1     1     2     0     0 -1.793144853E+01 -1.199118158E+01 -7.153761631E+01  1.456128878E+02  1.249806276E+02  0.00000E+00  9.000E+00
       5     1     1     2   501     0  3.535676433E-01 -1.309968525E+00 -7.994568254E+00  9.397693822E+00  4.750000000E+00  0.00000E+00  9.000E+00
      -5     1     1     2     0   503  4.812079588E-01  3.161102670E+00 -2.383311294E+00  6.202161229E+00  4.750000000E+00  0.00000E+00  9.000E+00
      21     1     1     2   512   501  1.709667293E+01  1.014004744E+01 -1.933432326E+03  1.933534504E+03  4.315837288E-05  0.00000E+00  9.000E+00
#rwgt            1           9   13.472516942718187                3     1684538           0
</event>
<event>
      6   9999  3.45752E-01  1.75191E+01 -1.00000E+00  1.64728E-01
      21    -1     0     0   501   511  0.000000000E+00  0.000000000E+00  6.929939219E+01  6.929939219E+01  0.000000000E+00  0.00000E+00  9.000E+00
      21    -1     0     0   502   503  0.000000000E+00  0.000000000E+00 -9.585690599E+02  9.585690599E+02  0.000000000E+00  0.00000E+00  9.000E+00
      25     1     1     2     0     0  2.861100199E-01  2.996333761E+01 -5.698443037E+02  5.841629471E+02  1.250037390E+02  0.00000E+00  9.000E+00
       5     1     1     2   501     0 -1.822495110E+01 -4.220786539E+01 -4.176090339E+01  6.229115744E+01  4.750000000E+00  0.00000E+00  9.000E+00
      -5     1     1     2     0   503  3.092684942E+01  4.873074530E-01 -3.272923699E+02  3.287849835E+02  4.750000000E+00  0.00000E+00  9.000E+00
      21     1     1     2   502   511 -1.298800835E+01  1.175722033E+01  4.962790926E+01  5.262936413E+01  1.168007728E-06  0.00000E+00  9.000E+00
#rwgt            1           9   1.2438235933737289                3     1685648           0
</event>
<event>
      6   9999  3.45752E-01  1.26471E+02 -1.00000E+00  1.16255E-01
      21    -1     0     0   512   503  0.000000000E+00  0.000000000E+00  1.724678181E+02  1.724678181E+02  0.000000000E+00  0.00000E+00  9.000E+00
      21    -1     0     0   501   502  0.000000000E+00  0.000000000E+00 -3.746451319E+03  3.746451319E+03  0.000000000E+00  0.00000E+00  9.000E+00
      25     1     1     2     0     0  1.413677050E+02  4.768659190E+01 -2.823448844E+02  3.429349198E+02  1.250075455E+02  0.00000E+00  9.000E+00
       5     1     1     2   501     0 -9.976977145E+00  6.500499885E+00 -2.811230819E+03  2.811260051E+03  4.750000000E+00  0.00000E+00  9.000E+00
      -5     1     1     2     0   503 -4.138354014E+01 -1.430324459E+02 -5.830886971E+02  6.018188009E+02  4.750000000E+00  0.00000E+00  9.000E+00
      21     1     1     2   512   502 -9.000718774E+01  8.884535411E+01  1.026808996E+02  1.629053650E+02  1.144409180E-05  0.00000E+00  9.000E+00
#rwgt            1           9   1.0060390159428621E-004           3     1688682           0
</event>
<event>
      6   9999  3.45752E-01  2.43204E+01 -1.00000E+00  1.53986E-01
      21    -1     0     0   501   502  0.000000000E+00  0.000000000E+00  8.600757136E+00  8.600757136E+00  0.000000000E+00  0.00000E+00  9.000E+00
      21    -1     0     0   511   503  0.000000000E+00  0.000000000E+00 -1.159586132E+03  1.159586132E+03  0.000000000E+00  0.00000E+00  9.000E+00
      25     1     1     2     0     0  2.044500081E+01  1.987483170E+01 -7.823139980E+02  7.927510141E+02  1.250038874E+02  0.00000E+00  9.000E+00
       5     1     1     2   501     0  1.952824486E+00  1.274931436E+00 -1.752249867E+00  5.574213239E+00  4.750000000E+00  0.00000E+00  9.000E+00
      -5     1     1     2     0   503 -3.700574453E+00 -5.596730186E+00 -1.501499035E+01  1.711812126E+01  4.750000000E+00  0.00000E+00  9.000E+00
      21     1     1     2   511   502 -1.869725085E+01 -1.555303295E+01 -3.519041364E+02  3.527435403E+02  6.607249480E-06  0.00000E+00  9.000E+00
#rwgt            1           9   1.8151526382121902E-006           3     1689481           0
</event>
<event>
      6   9999  3.45752E-01  5.42994E+00 -1.00000E+00  2.20281E-01
      21    -1     0     0   512   502  0.000000000E+00  0.000000000E+00  8.685131967E+01  8.685131967E+01  0.000000000E+00  0.00000E+00  9.000E+00
      21    -1     0     0   502   503  0.000000000E+00  0.000000000E+00 -1.601923389E+02  1.601923389E+02  0.000000000E+00  0.00000E+00  9.000E+00
      25     1     1     2     0     0  4.366768981E-01  1.689650014E+01 -3.313490083E+01  1.304170123E+02  1.249999722E+02  0.00000E+00  9.000E+00
       5     1     1     2   501     0 -2.432276135E-01  4.774922027E-02  1.213898025E+00  4.908919237E+00  4.750000000E+00  0.00000E+00  9.000E+00
      -5     1     1     2     0   503 -2.005888217E+00 -1.182571834E+01 -7.581093136E+01  7.690078684E+01  4.750000000E+00  0.00000E+00  9.000E+00
      21     1     1     2   512   501  1.812438933E+00 -5.118531021E+00  3.439091491E+01  3.481694017E+01  6.743495762E-07  0.00000E+00  9.000E+00
#rwgt            1           9   3.3900722764237522E-002           3     1690628           0
</event>
<event>
      6   9999  3.45752E-01  6.51224E+00 -1.00000E+00  2.09219E-01
      21    -1     0     0   501   511  0.000000000E+00  0.000000000E+00  6.509880025E+02  6.509880025E+02  0.000000000E+00  0.00000E+00  9.000E+00
      21    -1     0     0   502   503  0.000000000E+00  0.000000000E+00 -1.932334231E+02  1.932334231E+02  0.000000000E+00  0.00000E+00  9.000E+00
      25     1     1     2     0     0  2.712889811E+00 -1.817426798E+00 -1.490201800E+02  1.945416727E+02  1.250151413E+02  0.00000E+00  9.000E+00
       5     1     1     2   501     0 -8.292280371E-01 -8.981460212E+00  1.029185676E+02  1.034221848E+02  4.750000000E+00  0.00000E+00  9.000E+00
      -5     1     1     2     0   503 -5.727501885E+00  5.542071259E+00 -2.016440961E+01  2.219650303E+01  4.750000000E+00  0.00000E+00  9.000E+00
      21     1     1     2   502   511  3.843840111E+00  5.256815750E+00  5.240206014E+02  5.240610651E+02  7.629394531E-06  0.00000E+00  9.000E+00
#rwgt            1           9   3443.3259742588057                3     1694546           0
</event>
<event>
      6   9999  3.45752E-01  9.34160E+01 -1.00000E+00  1.21706E-01
      21    -1     0     0   501   512  0.000000000E+00  0.000000000E+00  7.841462253E+00  7.841462253E+00  0.000000000E+00  0.00000E+00  9.000E+00
      -2    -1     0     0     0   502  0.000000000E+00  0.000000000E+00 -2.935275739E+03  2.935275739E+03  0.000000000E+00  0.00000E+00  9.000E+00
      25     1     1     2     0     0  6.649110050E+01 -7.406074570E+01 -1.134927321E+03  1.146119998E+03  1.249998610E+02  0.00000E+00  9.000E+00
       5     1     1     2   501     0 -1.807176134E+01 -1.399264775E+01 -3.810334374E+02  3.817478562E+02  4.750000000E+00  0.00000E+00  9.000E+00
      -5     1     1     2     0   502 -7.565288183E+00  4.044508610E+00 -1.177806723E+02  1.181881589E+02  4.750000000E+00  0.00000E+00  9.000E+00
      -2     1     1     2     0   512 -4.085405098E+01  8.400888484E+01 -1.293692846E+03  1.297061188E+03  2.642899792E-05  0.00000E+00  9.000E+00
#rwgt            1           4   2.6124612577665842E-005           3     1698590           0
</event>
<event>
      6   9999  3.45752E-01  2.23218E+01 -1.00000E+00  1.56653E-01
      21    -1     0     0   501   502  0.000000000E+00  0.000000000E+00  2.420059223E+01  2.420059223E+01  0.000000000E+00  0.00000E+00  9.000E+00
      21    -1     0     0   511   503  0.000000000E+00  0.000000000E+00 -1.562086739E+03  1.562086739E+03  0.000000000E+00  0.00000E+00  9.000E+00
      25     1     1     2     0     0  6.432150228E+00 -8.229791637E-01 -9.269673273E+02  9.353794166E+02  1.249967085E+02  0.00000E+00  9.000E+00
       5     1     1     2   501     0 -8.733380191E+00 -9.590686582E+00  1.699674640E+01  2.190217083E+01  4.750000000E+00  0.00000E+00  9.000E+00
      -5     1     1     2     0   503 -9.690631321E-01 -1.166732258E+01 -1.365001946E+02  1.370836647E+02  4.750000000E+00  0.00000E+00  9.000E+00
      21     1     1     2   511   502  3.270293095E+00  2.208098832E+01 -4.914153711E+02  4.919220790E+02  5.394796609E-06  0.00000E+00  9.000E+00
#rwgt            1           9   2.0170684901070325E-003           3     1699661           0
</event>
<event>
      6   9999  3.45752E-01  7.62861E+00 -1.00000E+00  2.00491E-01
      21    -1     0     0   512   502  0.000000000E+00  0.000000000E+00  6.448827809E+01  6.448827809E+01  0.000000000E+00  0.00000E+00  9.000E+00
      21    -1     0     0   502   503  0.000000000E+00  0.000000000E+00 -8.886634653E+02  8.886634653E+02  0.000000000E+00  0.00000E+00  9.000E+00
      25     1     1     2     0     0  4.415158014E+00  2.768226149E+00 -6.236139083E+02  6.360398884E+02  1.250011052E+02  0.00000E+00  9.000E+00
       5     1     1     2   501     0  2.882709540E-01 -1.093563194E+00  4.382560431E+00  6.561121591E+00  4.750000000E+00  0.00000E+00  9.000E+00
      -5     1     1     2     0   503  2.840175312E+00 -2.810291354E+00 -2.574341528E+02  2.575089704E+02  4.750000000E+00  0.00000E+00  9.000E+00
      21     1     1     2   512   501 -7.543604280E+00  1.135628400E+00  5.249031343E+01  5.304176299E+01  2.023048729E-06  0.00000E+00  9.000E+00
#rwgt            1           9   1.1785833981665012E-002           3     1701338           0
</event>
<event>
      6   9999  3.45752E-01  6.65892E+00 -1.00000E+00  2.07943E-01
      21    -1     0     0   511   502  0.000000000E+00  0.000000000E+00  8.571707293E+02  8.571707293E+02  0.000000000E+00  0.00000E+00  9.000E+00
      21    -1     0     0   502   503  0.000000000E+00  0.000000000E+00 -1.105807037E+01  1.105807037E+01  0.000000000E+00  0.00000E+00  9.000E+00
      25     1     1     2     0     0 -2.720992455E+00 -6.680678589E-02  4.201719379E+02  4.383735317E+02  1.249779486E+02  0.00000E+00  9.000E+00
       5     1     1     2   501     0  7.183814069E-01  2.812043142E-01  3.867913743E+02  3.868213088E+02  4.750000000E+00  0.00000E+00  9.000E+00
      -5     1     1     2     0   503 -2.517330499E+00 -5.104315811E+00  6.977891163E+00  1.018059221E+01  4.750000000E+00  0.00000E+00  9.000E+00
      21     1     1     2   511   501  4.519941548E+00  4.889918283E+00  3.217145547E+01  3.285336694E+01  0.000000000E+00  0.00000E+00  9.000E+00
#rwgt            1           9   1.2421932472408812                3     1704560           0
</event>
<event>
      6   9999  3.45752E-01  1.22307E+02 -1.00000E+00  1.16832E-01
       1    -1     0     0   501     0  0.000000000E+00  0.000000000E+00  7.877986280E+01  7.877986280E+01  0.000000000E+00  0.00000E+00  9.000E+00
      21    -1     0     0   512   502  0.000000000E+00  0.000000000E+00 -8.406138633E+02  8.406138633E+02  0.000000000E+00  0.00000E+00  9.000E+00
      25     1     1     2     0     0  8.419644953E+01  2.238734957E+01 -7.142174150E+02  7.302882763E+02  1.249968601E+02  0.00000E+00  9.000E+00
       5     1     1     2   501     0  2.176281823E+01  5.819667004E+00 -2.125824826E+01  3.133631121E+01  4.750000000E+00  0.00000E+00  9.000E+00
      -5     1     1     2     0   502  1.423017519E+01 -5.545082578E+00 -3.152782482E+01  3.535268116E+01  4.750000000E+00  0.00000E+00  9.000E+00
       1     1     1     2   512     0 -1.201894430E+02 -2.266193400E+01  5.169487616E+00  1.224164574E+02  6.529361695E-07  0.00000E+00  9.000E+00
#rwgt            1           2   2.8307162582184213E-008           3     1708040           0
</event>
<event>
      6   9999  3.45752E-01  1.07474E+01 -1.00000E+00  1.83955E-01
      21    -1     0     0   501   502  0.000000000E+00  0.000000000E+00  1.365306241E+02  1.365306241E+02  0.000000000E+00  0.00000E+00  9.000E+00
      21    -1     0     0   511   503  0.000000000E+00  0.000000000E+00 -5.659201662E+02  5.659201662E+02  0.000000000E+00  0.00000E+00  9.000E+00
      25     1     1     2     0     0 -1.066974114E+01  9.055337402E+01  6.153988759E+01  1.665058939E+02  1.249931918E+02  0.00000E+00  9.000E+00
       5     1     1     2   501     0 -1.821119444E+00 -9.218924642E-01  1.597576178E+01  1.679148076E+01  4.750000000E+00  0.00000E+00  9.000E+00
      -5     1     1     2     0   503  6.807751976E+00 -9.875342572E+01 -4.173052111E+02  4.289111636E+02  4.750000000E+00  0.00000E+00  9.000E+00
      21     1     1     2   511   502  5.683108612E+00  9.121944166E+00 -8.959998035E+01  9.024225212E+01  0.000000000E+00  0.00000E+00  9.000E+00
#rwgt            1           9   3.2966620115118233E-003           3     1709197           0
</event>
<event>
      6   9999  3.45752E-01  5.37442E+01 -1.00000E+00  1.33131E-01
      21    -1     0     0   501   502  0.000000000E+00  0.000000000E+00  5.704810887E+01  5.704810887E+01  0.000000000E+00  0.00000E+00  9.000E+00
      21    -1     0     0   512   503  0.000000000E+00  0.000000000E+00 -5.460718408E+02  5.460718408E+02  0.000000000E+00  0.00000E+00  9.000E+00
      25     1     1     2     0     0 -3.423431965E+01 -9.794897709E+01 -1.205503855E+02  2.022954415E+02  1.250002379E+02  0.00000E+00  9.000E+00
       5     1     1     2   501     0 -2.531776831E+00 -4.318947314E+00  5.860442950E+00  9.053755651E+00  4.750000000E+00  0.00000E+00  9.000E+00
      -5     1     1     2     0   503  8.125766722E+00  5.679076150E+01 -2.458467270E+02  2.524963254E+02  4.750000000E+00  0.00000E+00  9.000E+00
      21     1     1     2   512   502  2.864032976E+01  4.547716290E+01 -1.284870623E+02  1.392744270E+02  2.697398305E-06  0.00000E+00  9.000E+00
#rwgt            1           9  0.14071646762176368                3     1713134           0
</event>
<event>
      6   9999  3.45752E-01  2.18843E+01 -1.00000E+00  1.57282E-01
      21    -1     0     0   501   511  0.000000000E+00  0.000000000E+00  5.886752771E+01  5.886752771E+01  0.000000000E+00  0.00000E+00  9.000E+00
      21    -1     0     0   502   503  0.000000000E+00  0.000000000E+00 -1.008211505E+03  1.008211505E+03  0.000000000E+00  0.00000E+00  9.000E+00
      25     1     1     2     0     0 -5.086474009E+01  1.415866770E+01 -6.488128309E+02  6.628507978E+02  1.250016040E+02  0.00000E+00  9.000E+00
       5     1     1     2   501     0 -2.955113592E+01 -5.238983763E+01 -1.145291887E+02  1.294506171E+02  4.750000000E+00  0.00000E+00  9.000E+00
      -5     1     1     2     0   503  7.429373110E+01  1.722065610E+01 -2.208124396E+02  2.336595932E+02  4.750000000E+00  0.00000E+00  9.000E+00
      21     1     1     2   502   511  6.122144915E+00  2.101051383E+01  3.481048155E+01  4.111802494E+01  2.132480600E-06  0.00000E+00  9.000E+00
#rwgt            1           9   1.5496442197656723E-002           3     1714229           0
</event>
<event>
      6   9999  3.45752E-01  6.45863E+00 -1.00000E+00  2.09697E-01
      21    -1     0     0   501   502  0.000000000E+00  0.000000000E+00  9.996957628E+01  9.996957628E+01  0.000000000E+00  0.00000E+00  9.000E+00
      21    -1     0     0   512   503  0.000000000E+00  0.000000000E+00 -1.712830025E+03  1.712830025E+03  0.000000000E+00  0.00000E+00  9.000E+00
      25     1     1     2     0     0 -4.233658001E+01  1.956353284E+00 -1.390884098E+03  1.397132386E+03  1.249964672E+02  0.00000E+00  9.000E+00
       5     1     1     2   501     0 -1.825160796E+00 -1.210224626E+01  9.472045970E+01  9.562595653E+01  4.750000000E+00  0.00000E+00  9.000E+00
      -5     1     1     2     0   503  3.778078306E+01  1.114453052E+01 -2.696900095E+02  2.725928316E+02  4.750000000E+00  0.00000E+00  9.000E+00
      21     1     1     2   512   502  6.380957746E+00 -9.986375447E-01 -4.700680102E+01  4.744842717E+01  6.743495762E-07  0.00000E+00  9.000E+00
#rwgt            1           9   5.8537413518988252E-003           3     1716189           0
</event>
<event>
      6   9999  3.45752E-01  5.93204E+00 -1.00000E+00  2.14749E-01
      21    -1     0     0   501   502  0.000000000E+00  0.000000000E+00  1.164809355E+03  1.164809355E+03  0.000000000E+00  0.00000E+00  9.000E+00
      21    -1     0     0   502   511  0.000000000E+00  0.000000000E+00 -1.434568261E+01  1.434568261E+01  0.000000000E+00  0.00000E+00  9.000E+00
      25     1     1     2     0     0  2.284091923E+01 -4.277562490E+00  4.361650427E+02  4.543182829E+02  1.250006102E+02  0.00000E+00  9.000E+00
       5     1     1     2   501     0  3.335647463E-01  2.033506360E+00  6.725782094E+02  6.725981390E+02  4.750000000E+00  0.00000E+00  9.000E+00
      -5     1     1     2     0   503 -1.885300337E+01 -1.819676685E+00  4.198162711E+01  4.630082585E+01  4.750000000E+00  0.00000E+00  9.000E+00
      21     1     1     2   503   511 -4.321480599E+00  4.063732815E+00 -2.612068236E-01  5.937789821E+00  5.215406418E-08  0.00000E+00  9.000E+00
#rwgt            1           9  0.11447773206936217                3     1722528           0
</event>
<event>
      6   9999  3.45752E-01  8.16324E+00 -1.00000E+00  1.96982E-01
      21    -1     0     0   501   502  0.000000000E+00  0.000000000E+00  1.691412329E+02  1.691412329E+02  0.000000000E+00  0.00000E+00  9.000E+00
      21    -1     0     0   512   503  0.000000000E+00  0.000000000E+00 -1.957133042E+02  1.957133042E+02  0.000000000E+00  0.00000E+00  9.000E+00
      25     1     1     2     0     0 -3.580239904E+01 -1.053554788E+01 -5.850814157E+01  1.429689110E+02  1.249963893E+02  0.00000E+00  9.000E+00
       5     1     1     2   501     0  1.120052863E+00 -4.002214096E+00  1.224340761E+02  1.225966465E+02  4.750000000E+00  0.00000E+00  9.000E+00
      -5     1     1     2     0   503  2.688421178E+01  1.695179120E+01 -6.488986788E+01  7.241119749E+01  4.750000000E+00  0.00000E+00  9.000E+00
      21     1     1     2   512   502  7.798134394E+00 -2.414029225E+00 -2.560813796E+01  2.687778203E+01  3.371747881E-07  0.00000E+00  9.000E+00
#rwgt            1           9   5.2067754160325139E-004           3     1726263           0
</event>
<event>
      6   9999  3.45752E-01  4.07828E+00 -1.00000E+00  2.46121E-01
      21    -1     0     0   501   511  0.000000000E+00  0.000000000E+00  3.834640422E+02  3.834640422E+02  0.000000000E+00  0.00000E+00  9.000E+00
      21    -1     0     0   502   503  0.000000000E+00  0.000000000E+00 -1.902194835E+01  1.902194835E+01  0.000000000E+00  0.00000E+00  9.000E+00
      25     1     1     2     0     0  9.192004706E+00 -3.155466486E+00  2.592484142E+02  2.879744448E+02  1.250003627E+02  0.00000E+00  9.000E+00
       5     1     1     2   501     0 -1.874008395E-01  1.989641726E-01  2.383044368E+01  2.430076649E+01  4.750000000E+00  0.00000E+00  9.000E+00
      -5     1     1     2     0   503 -1.285074620E+01  1.600211310E+00  6.520810301E+00  1.525732024E+01  4.750000000E+00  0.00000E+00  9.000E+00
      21     1     1     2   502   511  3.846142329E+00  1.356291003E+00  7.484242567E+01  7.495345900E+01  0.000000000E+00  0.00000E+00  9.000E+00
#rwgt            1           9   1.1880600842683644E-005           3     1730294           0
</event>
<event>
      6   9999  3.45752E-01  1.55246E+01 -1.00000E+00  1.69088E-01
      21    -1     0     0   501   502  0.000000000E+00  0.000000000E+00  2.095491098E+01  2.095491098E+01  0.000000000E+00  0.00000E+00  9.000E+00
      21    -1     0     0   502   512  0.000000000E+00  0.000000000E+00 -1.901729186E+03  1.901729186E+03  0.000000000E+00  0.00000E+00  9.000E+00
      25     1     1     2     0     0  1.265194892E+01  4.223591870E+01 -6.121717575E+02  6.263571922E+02  1.250005074E+02  0.00000E+00  9.000E+00
       5     1     1     2   501     0 -2.483257216E+00  4.642977043E+00  1.128730759E+01  1.333002681E+01  4.750000000E+00  0.00000E+00  9.000E+00
      -5     1     1     2     0   503 -2.559425064E+01 -4.512807521E+01 -4.568952479E+02  4.598558892E+02  4.750000000E+00  0.00000E+00  9.000E+00
      21     1     1     2   503   512  1.542555893E+01 -1.750820534E+00 -8.229945769E+02  8.231409885E+02  1.078959322E-05  0.00000E+00  9.000E+00
#rwgt            1           9   6.9308072686330657E-002           3     1734650           0
</event>
<event>
      6   9999  3.45752E-01  2.59251E+01 -1.00000E+00  1.52060E-01
      -2    -1     0     0     0   502  0.000000000E+00  0.000000000E+00  8.761549538E+02  8.761549538E+02  0.000000000E+00  0.00000E+00  9.000E+00
      21    -1     0     0   502   503  0.000000000E+00  0.000000000E+00 -2.336565613E+02  2.336565613E+02  0.000000000E+00  0.00000E+00  9.000E+00
      25     1     1     2     0     0 -1.486454876E+02  7.655380506E+00 -4.792162532E+00  1.944299515E+02  1.250038215E+02  0.00000E+00  9.000E+00
       5     1     1     2   501     0 -4.604062834E+00 -1.666514470E+01  2.238723880E+02  2.245892541E+02  4.750000000E+00  0.00000E+00  9.000E+00
      -5     1     1     2     0   503  1.434885848E+02 -1.500755876E+01 -9.430240130E+01  1.724230442E+02  4.750000000E+00  0.00000E+00  9.000E+00
      -2     1     1     2     0   501  9.760965595E+00  2.401732295E+01  5.177205684E+02  5.183692653E+02  7.629394531E-06  0.00000E+00  9.000E+00
#rwgt            1           9  0.67623359278873185                3     1737034           0
</event>
<event>
      6   9999  3.45752E-01  1.93846E+01 -1.00000E+00  1.61253E-01
      21    -1     0     0   511   502  0.000000000E+00  0.000000000E+00  7.990535862E+01  7.990535862E+01  0.000000000E+00  0.00000E+00  9.000E+00
      21    -1     0     0   502   503  0.000000000E+00  0.000000000E+00 -1.800639052E+02  1.800639052E+02  0.000000000E+00  0.00000E+00  9.000E+00
      25     1     1     2     0     0  5.170268364E+00 -2.884873399E+01 -6.788657521E+01  1.452362971E+02  1.250040551E+02  0.00000E+00  9.000E+00
       5     1     1     2   501     0  3.173913989E+00 -3.029248448E+00  2.754228128E+01  2.829116177E+01  4.750000000E+00  0.00000E+00  9.000E+00
      -5     1     1     2     0   503 -3.357366859E+00  1.314581369E+01 -6.484155349E+01  6.641591593E+01  4.750000000E+00  0.00000E+00  9.000E+00
      21     1     1     2   511   501 -4.986815494E+00  1.873216875E+01  5.027300848E+00  2.002588896E+01  1.576990671E-07  0.00000E+00  9.000E+00
#rwgt            1           9   6.0265389927692974E-002           3     1739273           0
</event>
<event>
      6   9999  3.45752E-01  2.17128E+01 -1.00000E+00  1.57533E-01
      21    -1     0     0   502   503  0.000000000E+00  0.000000000E+00  4.386335335E+02  4.386335335E+02  0.000000000E+00  0.00000E+00  9.000E+00
      21    -1     0     0   501   512  0.000000000E+00  0.000000000E+00 -3.673424728E+01  3.673424728E+01  0.000000000E+00  0.00000E+00  9.000E+00
      25     1     1     2     0     0 -1.180262899E+01 -2.037637306E+01  2.861630593E+02  3.131884373E+02  1.250727874E+02  0.00000E+00  9.000E+00
       5     1     1     2   501     0  5.662369706E-01 -8.255327776E-01  3.809829695E+01  3.840631275E+01  4.750000000E+00  0.00000E+00  9.000E+00
      -5     1     1     2     0   503  1.950811273E+01  1.126409502E+00  9.428959472E+01  9.641019362E+01  4.750000000E+00  0.00000E+00  9.000E+00
      21     1     1     2   502   512 -8.271720701E+00  2.007549634E+01 -1.665166472E+01  2.736283710E+01  1.092571186E-06  0.00000E+00  9.000E+00
#rwgt            1           9  0.14442664428234542                3     1740767           0
</event>
<event>
      6   9999  3.45752E-01  7.42105E+01 -1.00000E+00  1.26209E-01
      21    -1     0     0   511   503  0.000000000E+00  0.000000000E+00  3.017697803E+02  3.017697803E+02  0.000000000E+00  0.00000E+00  9.000E+00
      21    -1     0     0   501   502  0.000000000E+00  0.000000000E+00 -8.660788602E+02  8.660788602E+02  0.000000000E+00  0.00000E+00  9.000E+00
      25     1     1     2     0     0  3.916998525E+00 -4.050234563E+01 -6.212489073E+02  6.350044446E+02  1.249986278E+02  0.00000E+00  9.000E+00
       5     1     1     2   501     0 -3.497810343E-01 -3.890866739E-01 -1.391375197E+02  1.392195590E+02  4.750000000E+00  0.00000E+00  9.000E+00
      -5     1     1     2     0   503  3.265359887E+01 -2.387926727E+01 -8.962248415E+01  9.844404040E+01  4.750000000E+00  0.00000E+00  9.000E+00
      21     1     1     2   511   502 -3.622081636E+01  6.477069957E+01  2.856998311E+02  2.951805965E+02  0.000000000E+00  0.00000E+00  9.000E+00
#rwgt            1           9   6.5891945656548403E-003           3     1742006           0
</event>
<event>
      6   9999  3.45752E-01  4.28349E+00 -1.00000E+00  2.41852E-01
      21    -1     0     0   501   502  0.000000000E+00  0.000000000E+00  1.785957784E+01  1.785957784E+01  0.000000000E+00  0.00000E+00  9.000E+00
      21    -1     0     0   512   503  0.000000000E+00  0.000000000E+00 -3.104400550E+03  3.104400550E+03  0.000000000E+00  0.00000E+00  9.000E+00
      25     1     1     2     0     0 -1.464458770E+01 -1.107161450E+00 -3.001890436E+03  3.004527559E+03  1.249958856E+02  0.00000E+00  9.000E+00
       5     1     1     2   501     0  8.881663644E+00 -9.134921862E-01  1.428416505E+01  1.750195099E+01  4.750000000E+00  0.00000E+00  9.000E+00
      -5     1     1     2     0   503  2.447732277E+00  4.733176744E+00 -2.103507512E+01  2.221331224E+01  4.750000000E+00  0.00000E+00  9.000E+00
      21     1     1     2   512   502  3.315191782E+00 -2.712523107E+00 -7.789962549E+01  7.801730532E+01  0.000000000E+00  0.00000E+00  9.000E+00
#rwgt            1           9   6.0452516858384573E-005           3     1742313           0
</event>
<event>
      6   9999  3.45752E-01  1.82571E+01 -1.00000E+00  1.63293E-01
      21    -1     0     0   501   502  0.000000000E+00  0.000000000E+00  7.619081865E+00  7.619081865E+00  0.000000000E+00  0.00000E+00  9.000E+00
      21    -1     0     0   511   503  0.000000000E+00  0.000000000E+00 -8.735305954E+02  8.735305954E+02  0.000000000E+00  0.00000E+00  9.000E+00
      25     1     1     2     0     0  1.457789328E+01 -6.958600447E+00 -6.981222482E+02  7.094078811E+02  1.249957253E+02  0.00000E+00  9.000E+00
       5     1     1     2   501     0  1.004483602E+00 -9.065455741E-01 -4.963330161E+00  7.001996749E+00  4.750000000E+00  0.00000E+00  9.000E+00
      -5     1     1     2     0   503  1.513934667E+00  1.459183078E+00 -1.701374503E+01  1.778907624E+01  4.750000000E+00  0.00000E+00  9.000E+00
      21     1     1     2   511   502 -1.709631155E+01  6.405962943E+00 -1.458121902E+02  1.469507231E+02  1.907348633E-06  0.00000E+00  9.000E+00
#rwgt            1           9   4.8911683242857810E-006           3     1748605           0
</event>
<event>
      6   9999  3.45752E-01  7.55084E+00 -1.00000E+00  2.01033E-01
      21    -1     0     0   501   502  0.000000000E+00  0.000000000E+00  1.126403252E+01  1.126403252E+01  0.000000000E+00  0.00000E+00  9.000E+00
      21    -1     0     0   512   503  0.000000000E+00  0.000000000E+00 -9.400123034E+02  9.400123034E+02  0.000000000E+00  0.00000E+00  9.000E+00
      25     1     1     2     0     0  1.828796451E+01 -1.903743370E+00 -6.035394814E+02  6.166227509E+02  1.250025494E+02  0.00000E+00  9.000E+00
       5     1     1     2   501     0  3.380957651E-01 -8.527736633E-01  2.972648511E+00  5.678086900E+00  4.750000000E+00  0.00000E+00  9.000E+00
      -5     1     1     2     0   503 -1.250626937E+01  7.179570267E+00 -2.034633369E+02  2.040290297E+02  4.750000000E+00  0.00000E+00  9.000E+00
      21     1     1     2   512   502 -6.119790907E+00 -4.423053234E+00 -1.247181011E+02  1.249464685E+02  1.907348633E-06  0.00000E+00  9.000E+00
#rwgt            1           9   1.8700131705806256E-004           3     1749969           0
</event>
<event>
      6   9999  3.45752E-01  8.53900E+00 -1.00000E+00  1.94721E-01
      21    -1     0     0   501   502  0.000000000E+00  0.000000000E+00  1.012831162E+01  1.012831162E+01  0.000000000E+00  0.00000E+00  9.000E+00
       2    -1     0     0   502     0  0.000000000E+00  0.000000000E+00 -1.584700635E+03  1.584700635E+03  0.000000000E+00  0.00000E+00  9.000E+00
      25     1     1     2     0     0 -2.377518229E+01  3.637312279E+01 -5.312332530E+02  5.474689749E+02  1.250009843E+02  0.00000E+00  9.000E+00
       5     1     1     2   501     0  4.050621934E-01 -5.498122212E+00 -2.265437570E+01  2.379446704E+01  4.750000000E+00  0.00000E+00  9.000E+00
      -5     1     1     2     0   503  1.495690158E+01 -3.233521627E+01 -2.264270787E+02  2.292619889E+02  4.750000000E+00  0.00000E+00  9.000E+00
       2     1     1     2   503     0  8.413218509E+00  1.460215689E+00 -7.942576160E+02  7.943035157E+02  0.000000000E+00  0.00000E+00  9.000E+00
#rwgt            1           9   5.8256275200818781E-002           3     1753309           0
</event>
<event>
      6   9999  3.45752E-01  3.32466E+01 -1.00000E+00  1.45008E-01
      21    -1     0     0   501   511  0.000000000E+00  0.000000000E+00  3.125134426E+01  3.125134426E+01  0.000000000E+00  0.00000E+00  9.000E+00
      21    -1     0     0   502   503  0.000000000E+00  0.000000000E+00 -1.154450053E+03  1.154450053E+03  0.000000000E+00  0.00000E+00  9.000E+00
      25     1     1     2     0     0  9.257948044E+01  1.599011249E+01 -9.288483263E+02  9.418825431E+02  1.247271736E+02  0.00000E+00  9.000E+00
       5     1     1     2   501     0 -7.472360728E+01 -5.000223037E+01 -8.084462229E+01  1.210051899E+02  4.750000000E+00  0.00000E+00  9.000E+00
      -5     1     1     2     0   503  9.830468758E-01  6.618056250E+00 -5.426019536E+01  5.487710224E+01  4.750000000E+00  0.00000E+00  9.000E+00
      21     1     1     2   502   511 -1.883892004E+01  2.739406163E+01 -5.924556519E+01  6.793656243E+01  1.168007728E-06  0.00000E+00  9.000E+00
#rwgt            1           9   2.4163390734481437E-002           3     1756105           0
</event>
<event>
      6   9999  3.45752E-01  3.36530E+00 -1.00000E+00  2.64479E-01
      21    -1     0     0   501   512  0.000000000E+00  0.000000000E+00  1.868849037E+02  1.868849037E+02  0.000000000E+00  0.00000E+00  9.000E+00
      21    -1     0     0   502   503  0.000000000E+00  0.000000000E+00 -1.082265412E+02  1.082265412E+02  0.000000000E+00  0.00000E+00  9.000E+00
      25     1     1     2     0     0 -9.512099197E-02  3.276750631E+00 -6.605728938E+01  1.414248414E+02  1.250066964E+02  0.00000E+00  9.000E+00
       5     1     1     2   501     0  1.701169123E+00 -6.287782091E-01  4.739814536E+00  6.951092019E+00  4.750000000E+00  0.00000E+00  9.000E+00
      -5     1     1     2     0   503  8.540303873E-01 -3.516102842E-01 -1.617538290E+00  5.102149333E+00  4.750000000E+00  0.00000E+00  9.000E+00
      21     1     1     2   502   512 -2.460078519E+00 -2.296362138E+00  1.415933756E+02  1.416333622E+02  1.907348633E-06  0.00000E+00  9.000E+00
#rwgt            1           9   3.0436960708808976E-002           3     1757849           0
</event>
<event>
      6   9999 -3.45752E-01  1.38993E+01 -1.00000E+00  1.73291E-01
      21    -1     0     0   511   502  0.000000000E+00  0.000000000E+00  4.920040721E+01  4.920040721E+01  0.000000000E+00  0.00000E+00  9.000E+00
      21    -1     0     0   502   503  0.000000000E+00  0.000000000E+00 -1.173500957E+03  1.173500957E+03  0.000000000E+00  0.00000E+00  9.000E+00
      25     1     1     2     0     0  5.583556766E+00 -7.207763149E+00 -1.153898024E+03  1.160684174E+03  1.249958975E+02  0.00000E+00  9.000E+00
       5     1     1     2   501     0 -5.378003347E+00  7.526410311E+00  2.487296426E+01  2.695916585E+01  4.750000000E+00  0.00000E+00  9.000E+00
      -5     1     1     2     0   503 -1.088520416E+01  8.577130559E+00 -7.580187285E+00  1.649474394E+01  4.750000000E+00  0.00000E+00  9.000E+00
      21     1     1     2   511   501  1.067965074E+01 -8.895777721E+00  1.230469722E+01  1.856328029E+01  9.078709013E-07  0.00000E+00  9.000E+00
#rwgt            1           9  -4.5154748617184166E-002           3     1762194           0
</event>
<event>
      6   9999  3.45752E-01  3.87071E+01 -1.00000E+00  1.41018E-01
      21    -1     0     0   501   502  0.000000000E+00  0.000000000E+00  1.656442779E+03  1.656442779E+03  0.000000000E+00  0.00000E+00  9.000E+00
      21    -1     0     0   512   503  0.000000000E+00  0.000000000E+00 -4.535607011E+02  4.535607011E+02  0.000000000E+00  0.00000E+00  9.000E+00
      25     1     1     2     0     0 -6.229531322E+01  1.065432131E+02  9.729817752E+02  9.887131976E+02  1.250123587E+02  0.00000E+00  9.000E+00
       5     1     1     2   501     0 -2.839871967E+00  9.912380622E-01  6.241647317E+02  6.241900529E+02  4.750000000E+00  0.00000E+00  9.000E+00
      -5     1     1     2     0   503  5.751466531E+01 -6.958492554E+01  1.003017896E+01  9.095694354E+01  4.750000000E+00  0.00000E+00  9.000E+00
      21     1     1     2   512   502  7.620519879E+00 -3.794952566E+01 -4.042946079E+02  4.061432861E+02  7.629394531E-06  0.00000E+00  9.000E+00
#rwgt            1           9   76.133322896282010                3     1765767           0
</event>
<event>
      6   9999  3.45752E-01  8.33993E+00 -1.00000E+00  1.95899E-01
      21    -1     0     0   501   511  0.000000000E+00  0.000000000E+00  1.678156979E+02  1.678156979E+02  0.000000000E+00  0.00000E+00  9.000E+00
      21    -1     0     0   502   503  0.000000000E+00  0.000000000E+00 -6.215817959E+02  6.215817959E+02  0.000000000E+00  0.00000E+00  9.000E+00
      25     1     1     2     0     0 -1.538347557E+01  6.638484208E+00 -5.645627772E+02  5.784780325E+02  1.249999356E+02  0.00000E+00  9.000E+00
       5     1     1     2   501     0 -1.839940145E-01  4.429004236E-01 -3.802458409E+00  6.103376487E+00  4.750000000E+00  0.00000E+00  9.000E+00
      -5     1     1     2     0   503  1.252362545E+01  6.832388778E-01 -4.399960560E+01  4.599821521E+01  4.750000000E+00  0.00000E+00  9.000E+00
      21     1     1     2   502   511  3.043844138E+00 -7.764623509E+00  1.585987432E+02  1.588178696E+02  2.697398305E-06  0.00000E+00  9.000E+00
#rwgt            1           9   3.5246583990748042E-004           3     1767381           0
</event>
<event>
      6   9999  3.45752E-01  1.48326E+01 -1.00000E+00  1.70795E-01
      21    -1     0     0   501   512  0.000000000E+00  0.000000000E+00  3.302269949E+02  3.302269949E+02  0.000000000E+00  0.00000E+00  9.000E+00
      21    -1     0     0   502   503  0.000000000E+00  0.000000000E+00 -1.082909904E+03  1.082909904E+03  0.000000000E+00  0.00000E+00  9.000E+00
      25     1     1     2     0     0  2.969273290E+01  2.832752991E+01 -7.470464057E+02  7.585429592E+02  1.249999256E+02  0.00000E+00  9.000E+00
       5     1     1     2   501     0  1.035669881E+01  1.143384521E+00  1.710481824E+01  2.058411634E+01  4.750000000E+00  0.00000E+00  9.000E+00
      -5     1     1     2     0   503 -2.813992548E+01 -2.062947823E+01 -3.272505002E+02  3.291396104E+02  4.750000000E+00  0.00000E+00  9.000E+00
      21     1     1     2   502   512 -1.190950623E+01 -8.841436198E+00  3.045091782E+02  3.048702133E+02  3.814697266E-06  0.00000E+00  9.000E+00
#rwgt            1           9   5.1024487441955882E-002           3     1770000           0
</event>
<event>
      6   9999  3.45752E-01  3.24541E+01 -1.00000E+00  1.45663E-01
      21    -1     0     0   501   502  0.000000000E+00  0.000000000E+00  3.266622025E+01  3.266622025E+01  0.000000000E+00  0.00000E+00  9.000E+00
       2    -1     0     0   502     0  0.000000000E+00  0.000000000E+00 -1.961508715E+03  1.961508715E+03  0.000000000E+00  0.00000E+00  9.000E+00
      25     1     1     2     0     0  7.907851066E+00  7.912631516E+01 -9.926014228E+02  1.003596424E+03  1.249987594E+02  0.00000E+00  9.000E+00
       5     1     1     2   501     0 -2.656393996E+00  2.197547342E+00  8.539500038E+00  1.036200773E+01  4.750000000E+00  0.00000E+00  9.000E+00
      -5     1     1     2     0   503 -3.418733477E+01 -6.662752952E+01 -6.338988839E+01  9.822851927E+01  4.750000000E+00  0.00000E+00  9.000E+00
       2     1     1     2   503     0  2.893587770E+01 -1.469633299E+01 -8.813906835E+02  8.819879841E+02  1.078959322E-05  0.00000E+00  9.000E+00
#rwgt            1           9   1.3879807853866186E-004           3     1772424           0
</event>
<event>
      6   9999  3.45752E-01  5.17018E+00 -1.00000E+00  2.23477E-01
      21    -1     0     0   501   502  0.000000000E+00  0.000000000E+00  4.961632847E+03  4.961632847E+03  0.000000000E+00  0.00000E+00  9.000E+00
      21    -1     0     0   511   503  0.000000000E+00  0.000000000E+00 -2.856607622E+00  2.856607622E+00  0.000000000E+00  0.00000E+00  9.000E+00
      25     1     1     2     0     0 -4.339318157E+00  3.729818698E-01  4.117854384E+03  4.119753170E+03  1.249899353E+02  0.00000E+00  9.000E+00
       5     1     1     2   501     0  8.697577212E-01  3.832122839E-01  8.020764702E+02  8.020910982E+02  4.750000000E+00  0.00000E+00  9.000E+00
      -5     1     1     2     0   503  6.658580816E+00  3.313313333E+00  3.527473976E+01  3.636185513E+01  4.750000000E+00  0.00000E+00  9.000E+00
      21     1     1     2   511   502 -3.189020381E+00 -4.069507487E+00  3.570644965E+00  6.283330935E+00  9.000103993E-07  0.00000E+00  9.000E+00
#rwgt            1           9  0.18491963938756650                3     1773882           0
</event>
<event>
      6   9999  3.45752E-01  2.01996E+01 -1.00000E+00  1.59882E-01
      21    -1     0     0   502   503  0.000000000E+00  0.000000000E+00  6.746383066E+01  6.746383066E+01  0.000000000E+00  0.00000E+00  9.000E+00
      21    -1     0     0   501   512  0.000000000E+00  0.000000000E+00 -2.491390023E+02  2.491390023E+02  0.000000000E+00  0.00000E+00  9.000E+00
      25     1     1     2     0     0 -2.249091840E+01  3.962988705E+01 -8.076636701E+01  1.556394015E+02  1.249961916E+02  0.00000E+00  9.000E+00
       5     1     1     2   501     0 -2.830145830E+01 -2.758662577E+00 -3.518250755E+01  4.548575710E+01  4.750000000E+00  0.00000E+00  9.000E+00
      -5     1     1     2     0   503  6.098681515E+01 -1.943288036E+01 -2.293555780E+01  6.815886423E+01  4.750000000E+00  0.00000E+00  9.000E+00
      21     1     1     2   502   512 -1.019443845E+01 -1.743834411E+01 -4.279073926E+01  4.731881008E+01  6.743495762E-07  0.00000E+00  9.000E+00
#rwgt            1           9  0.15746977020328370                3     1777425           0
</event>
<event>
      6   9999  3.45752E-01  2.78816E+01 -1.00000E+00  1.49925E-01
      21    -1     0     0   502   511  0.000000000E+00  0.000000000E+00  1.343871216E+01  1.343871216E+01  0.000000000E+00  0.00000E+00  9.000E+00
      21    -1     0     0   501   502  0.000000000E+00  0.000000000E+00 -8.086137810E+02  8.086137810E+02  0.000000000E+00  0.00000E+00  9.000E+00
      25     1     1     2     0     0 -6.008273035E+00 -3.171528596E+01 -7.306656176E+02  7.419829575E+02  1.249980230E+02  0.00000E+00  9.000E+00
       5     1     1     2   501     0 -6.896887518E-01  4.526274087E+00  1.508935512E-01  6.599098162E+00  4.750000000E+00  0.00000E+00  9.000E+00
      -5     1     1     2     0   503 -4.176364228E+00  1.515407714E+00 -1.769483061E+01  1.885226801E+01  4.750000000E+00  0.00000E+00  9.000E+00
      21     1     1     2   503   511  1.087432602E+01  2.567360416E+01 -4.696551412E+01  5.461816944E+01  1.348699152E-06  0.00000E+00  9.000E+00
#rwgt            1           9   7.7750211558032440E-004           3     1779156           0
</event>
<event>
      6   9999  3.45752E-01  1.17551E+01 -1.00000E+00  1.80088E-01
      21    -1     0     0   501   502  0.000000000E+00  0.000000000E+00  1.020304063E+02  1.020304063E+02  0.000000000E+00  0.00000E+00  9.000E+00
      -2    -1     0     0     0   503  0.000000000E+00  0.000000000E+00 -3.375191957E+02  3.375191957E+02  0.000000000E+00  0.00000E+00  9.000E+00
      25     1     1     2     0     0  1.140829376E+01  2.049923835E+01 -1.131451139E+02  1.702264436E+02  1.249994295E+02  0.00000E+00  9.000E+00
       5     1     1     2   501     0 -8.784249999E-01 -3.583468421E-02  7.112179530E+01  7.128565902E+01  4.750000000E+00  0.00000E+00  9.000E+00
      -5     1     1     2     0   503 -3.366129275E+00 -1.114330554E+01 -1.681071127E+01  2.099206036E+01  4.750000000E+00  0.00000E+00  9.000E+00
      -2     1     1     2     0   502 -7.163739485E+00 -9.320098127E+00 -1.766547596E+02  1.770454390E+02  2.697398305E-06  0.00000E+00  9.000E+00
#rwgt            1           9   59.326864333050267                3     1780246           0
</event>
<event>
      6   9999  3.45752E-01  2.63468E+00 -1.00000E+00  2.92543E-01
      21    -1     0     0   501   502  0.000000000E+00  0.000000000E+00  1.471863483E+01  1.471863483E+01  0.000000000E+00  0.00000E+00  9.000E+00
      21    -1     0     0   511   503  0.000000000E+00  0.000000000E+00 -8.413242412E+02  8.413242412E+02  0.000000000E+00  0.00000E+00  9.000E+00
      25     1     1     2     0     0  2.890064595E+01  1.113666024E+01 -3.629065255E+02  3.851042843E+02  1.250795389E+02  0.00000E+00  9.000E+00
       5     1     1     2   501     0  8.642432996E-01 -8.081990558E-01  1.111540283E+00  5.019773301E+00  4.750000000E+00  0.00000E+00  9.000E+00
      -5     1     1     2     0   503 -2.765362123E+01 -8.752364658E+00 -4.350933200E+02  4.360849531E+02  4.750000000E+00  0.00000E+00  9.000E+00
      21     1     1     2   511   502 -2.111268014E+00 -1.576096528E+00 -2.971730112E+01  2.983386530E+01  4.768371582E-07  0.00000E+00  9.000E+00
#rwgt            1           9   7.9201571718362420E-004           3     1782741           0
</event>
<event>
      6   9999 -3.45752E-01  4.67412E+01 -1.00000E+00  1.36373E-01
      21    -1     0     0   501   502  0.000000000E+00  0.000000000E+00  7.547437801E+01  7.547437801E+01  0.000000000E+00  0.00000E+00  9.000E+00
      21    -1     0     0   512   503  0.000000000E+00  0.000000000E+00 -1.609501639E+03  1.609501639E+03  0.000000000E+00  0.00000E+00  9.000E+00
      25     1     1     2     0     0 -2.425757249E+01 -1.896516806E+01 -1.483831352E+03  1.489404634E+03  1.249903034E+02  0.00000E+00  9.000E+00
       5     1     1     2   501     0  6.480499013E+00 -2.099595389E+01  6.512219535E+01  6.889332170E+01  4.750000000E+00  0.00000E+00  9.000E+00
      -5     1     1     2     0   503 -2.004953422E+00 -2.387577550E+00 -1.180311140E+01  1.309947722E+01  4.750000000E+00  0.00000E+00  9.000E+00
      21     1     1     2   512   502  1.978202690E+01  4.234869950E+01 -1.035149928E+02  1.135785837E+02  1.907348633E-06  0.00000E+00  9.000E+00
#rwgt            1           9  -2.2885294994165524E-005           3     1789820           0
</event>
<event>
      6   9999 -3.45752E-01  1.22855E+01 -1.00000E+00  1.78244E-01
      21    -1     0     0   511   502  0.000000000E+00  0.000000000E+00  8.714993746E+01  8.714993746E+01  0.000000000E+00  0.00000E+00  9.000E+00
      21    -1     0     0   502   503  0.000000000E+00  0.000000000E+00 -1.552903772E+03  1.552903772E+03  0.000000000E+00  0.00000E+00  9.000E+00
      25     1     1     2     0     0  5.646877450E+01  2.098883160E+02 -1.331099674E+03  1.354508434E+03  1.249997057E+02  0.00000E+00  9.000E+00
       5     1     1     2   501     0 -5.013951228E-01  4.052251253E+00  1.643478129E+01  1.758796956E+01  4.750000000E+00  0.00000E+00  9.000E+00
      -5     1     1     2     0   503 -5.323549684E+01 -2.019626191E+02 -1.408041115E+02  2.519350669E+02  4.750000000E+00  0.00000E+00  9.000E+00
      21     1     1     2   511   501 -2.731882537E+00 -1.197794821E+01 -1.028483039E+01  1.602223959E+01  2.920019320E-07  0.00000E+00  9.000E+00
#rwgt            1           9  -4.4948324157153578E-003           3     1791170           0
</event>
<event>
      6   9999 -3.45752E-01  4.59161E+00 -1.00000E+00  2.36070E-01
      21    -1     0     0   512   502  0.000000000E+00  0.000000000E+00  3.312474285E+02  3.312474285E+02  0.000000000E+00  0.00000E+00  9.000E+00
      21    -1     0     0   502   503  0.000000000E+00  0.000000000E+00 -8.620345432E+02  8.620345432E+02  0.000000000E+00  0.00000E+00  9.000E+00
      25     1     1     2     0     0 -1.891910272E+00  1.541484100E+01 -8.344670685E+02  8.439174202E+02  1.249805065E+02  0.00000E+00  9.000E+00
       5     1     1     2   501     0 -1.953377481E+00 -2.431826898E+00  5.033067908E+00  7.591030115E+00  4.750000000E+00  0.00000E+00  9.000E+00
      -5     1     1     2     0   503 -7.400765814E-01 -1.274351957E+01 -1.939436197E+01  2.369913037E+01  4.750000000E+00  0.00000E+00  9.000E+00
      21     1     1     2   512   501  4.585364334E+00 -2.394945342E-01  3.180412478E+02  3.180743910E+02  6.607249480E-06  0.00000E+00  9.000E+00
#rwgt            1           9  -1.5074869020042831E-004           3     1795164           0
</event>
<event>
      6   9999  3.45752E-01  1.49132E+01 -1.00000E+00  1.70590E-01
      21    -1     0     0   501   511  0.000000000E+00  0.000000000E+00  1.363686014E+01  1.363686014E+01  0.000000000E+00  0.00000E+00  9.000E+00
      21    -1     0     0   502   503  0.000000000E+00  0.000000000E+00 -1.207403713E+03  1.207403713E+03  0.000000000E+00  0.00000E+00  9.000E+00
      25     1     1     2     0     0  2.709462203E+01  1.234485033E+00 -1.064727683E+03  1.072382913E+03  1.249977231E+02  0.00000E+00  9.000E+00
       5     1     1     2   501     0 -3.051336262E+00 -1.910084184E+00  3.956980718E+00  7.153968897E+00  4.750000000E+00  0.00000E+00  9.000E+00
      -5     1     1     2     0   503 -2.737353366E+01 -1.386098397E+01 -6.701291334E+01  7.385614582E+01  4.750000000E+00  0.00000E+00  9.000E+00
      21     1     1     2   502   511  3.330247894E+00  1.453658312E+01 -6.598323805E+01  6.764754618E+01  9.536743164E-07  0.00000E+00  9.000E+00
#rwgt            1           9   1.5438393119913841E-003           3     1799944           0
</event>
<event>
      6   9999  3.45752E-01  6.59942E+00 -1.00000E+00  2.08455E-01
      21    -1     0     0   512   502  0.000000000E+00  0.000000000E+00  1.101120055E+02  1.101120055E+02  0.000000000E+00  0.00000E+00  9.000E+00
      21    -1     0     0   502   503  0.000000000E+00  0.000000000E+00 -1.477349376E+03  1.477349376E+03  0.000000000E+00  0.00000E+00  9.000E+00
      25     1     1     2     0     0 -2.420200263E+01  1.955193504E+01 -9.012235651E+02  9.103832817E+02  1.250031605E+02  0.00000E+00  9.000E+00
       5     1     1     2   501     0 -9.371320017E-01  1.380035609E+01  6.963105070E+01  7.115036027E+01  4.750000000E+00  0.00000E+00  9.000E+00
      -5     1     1     2     0   503  2.045205520E+01 -3.799811568E+01 -5.696430583E+02  5.712949498E+02  4.750000000E+00  0.00000E+00  9.000E+00
      21     1     1     2   512   501  4.687079437E+00  4.645824546E+00  3.399820203E+01  3.463278996E+01  6.743495762E-07  0.00000E+00  9.000E+00
#rwgt            1           9   7.6521585745773586E-004           3     1803030           0
</event>
<event>
      6   9999 -3.45752E-01  8.85665E+00 -1.00000E+00  1.92925E-01
      21    -1     0     0   511   502  0.000000000E+00  0.000000000E+00  3.773953552E+02  3.773953552E+02  0.000000000E+00  0.00000E+00  9.000E+00
      21    -1     0     0   502   503  0.000000000E+00  0.000000000E+00 -7.455742550E+02  7.455742550E+02  0.000000000E+00  0.00000E+00  9.000E+00
      25     1     1     2     0     0 -3.486773589E+01  7.880247341E+01 -6.647409538E+02  6.818562584E+02  1.249873299E+02  0.00000E+00  9.000E+00
       5     1     1     2   501     0 -2.982173851E+00 -4.725321894E+00  2.503127655E+01  2.608350693E+01  4.750000000E+00  0.00000E+00  9.000E+00
      -5     1     1     2     0   503  2.899327943E+01 -7.405666781E+01 -4.955254433E+01  9.382439687E+01  4.750000000E+00  0.00000E+00  9.000E+00
      21     1     1     2   511   501  8.856630310E+00 -2.048370846E-02  3.210833217E+02  3.212054480E+02  5.394796609E-06  0.00000E+00  9.000E+00
#rwgt            1           9  -1.1156024907177721E-004           3     1809406           0
</event>
<event>
      6   9999  3.45752E-01  8.60416E+00 -1.00000E+00  1.94344E-01
      21    -1     0     0   501   502  0.000000000E+00  0.000000000E+00  1.216867869E+01  1.216867869E+01  0.000000000E+00  0.00000E+00  9.000E+00
      21    -1     0     0   502   512  0.000000000E+00  0.000000000E+00 -3.394487477E+03  3.394487477E+03  0.000000000E+00  0.00000E+00  9.000E+00
      25     1     1     2     0     0  1.512926243E+02  4.803542189E+01 -1.361724216E+03  1.376631649E+03  1.249999820E+02  0.00000E+00  9.000E+00
       5     1     1     2   501     0 -5.538094641E+01 -2.120743412E+01 -3.178320681E+02  3.233521153E+02  4.750000000E+00  0.00000E+00  9.000E+00
      -5     1     1     2     0   503 -8.835357909E+01 -3.093976019E+01 -1.140922702E+03  1.144766701E+03  4.750000000E+00  0.00000E+00  9.000E+00
      21     1     1     2   503   512 -7.558098768E+00  4.111772419E+00 -5.618398116E+02  5.619056909E+02  1.078959322E-05  0.00000E+00  9.000E+00
#rwgt            1           9   4.0079708840965681E-004           3     1813092           0
</event>
<event>
      6   9999  3.45752E-01  3.59512E+01 -1.00000E+00  1.42928E-01
      21    -1     0     0   511   502  0.000000000E+00  0.000000000E+00  3.105125695E+00  3.105125695E+00  0.000000000E+00  0.00000E+00  9.000E+00
       2    -1     0     0   501     0  0.000000000E+00  0.000000000E+00 -4.411076368E+03  4.411076368E+03  0.000000000E+00  0.00000E+00  9.000E+00
      25     1     1     2     0     0 -9.446402834E+00  6.458002291E-01 -1.533447917E+03  1.538563378E+03  1.250004036E+02  0.00000E+00  9.000E+00
       5     1     1     2   501     0 -7.413872465E+00  5.056991825E+00 -8.334241259E+02  8.334859776E+02  4.750000000E+00  0.00000E+00  9.000E+00
      -5     1     1     2     0   502  1.464142252E+00  2.678482103E+01 -1.120742870E+03  1.121073911E+03  4.750000000E+00  0.00000E+00  9.000E+00
       2     1     1     2   511     0  1.539613305E+01 -3.248761308E+01 -9.203563290E+02  9.210582274E+02  1.868812365E-05  0.00000E+00  9.000E+00
#rwgt            1           3   1.8750897523945554E-005           3     1816749           0
</event>
<event>
      6   9999  3.45752E-01  4.05759E+00 -1.00000E+00  2.46572E-01
      21    -1     0     0   512   502  0.000000000E+00  0.000000000E+00  1.334398399E+02  1.334398399E+02  0.000000000E+00  0.00000E+00  9.000E+00
      21    -1     0     0   502   503  0.000000000E+00  0.000000000E+00 -1.197332462E+03  1.197332462E+03  0.000000000E+00  0.00000E+00  9.000E+00
      25     1     1     2     0     0 -4.696902882E+00  4.973603880E+00 -1.066641239E+03  1.073962443E+03  1.249999964E+02  0.00000E+00  9.000E+00
       5     1     1     2   501     0  5.177193447E+00 -5.361588661E+00  3.194832381E+01  3.314827083E+01  4.750000000E+00  0.00000E+00  9.000E+00
      -5     1     1     2     0   503  1.452234132E+00 -3.179836270E+00 -1.263194844E+02  1.264570875E+02  4.750000000E+00  0.00000E+00  9.000E+00
      21     1     1     2   512   501 -1.932524697E+00  3.567821051E+00  9.711977668E+01  9.720450104E+01  3.303624740E-06  0.00000E+00  9.000E+00
#rwgt            1           9   2.2381607312898174E-004           3     1817848           0
</event>
<event>
      6   9999  3.45752E-01  2.82260E+01 -1.00000E+00  1.49571E-01
      21    -1     0     0   501   511  0.000000000E+00  0.000000000E+00  6.670931189E+01  6.670931189E+01  0.000000000E+00  0.00000E+00  9.000E+00
      21    -1     0     0   502   503  0.000000000E+00  0.000000000E+00 -1.374440548E+03  1.374440548E+03  0.000000000E+00  0.00000E+00  9.000E+00
      25     1     1     2     0     0 -8.616639930E+01  6.183567180E+01 -1.658788958E+02  2.332144608E+02  1.249995118E+02  0.00000E+00  9.000E+00
       5     1     1     2   501     0 -3.929863508E+00 -1.049765949E+01  2.214447941E+01  2.527024238E+01  4.750000000E+00  0.00000E+00  9.000E+00
      -5     1     1     2     0   503  8.501478235E+01 -7.910288691E+01 -1.139142917E+03  1.145056299E+03  4.750000000E+00  0.00000E+00  9.000E+00
      21     1     1     2   502   511  5.081480463E+00  2.776487460E+01 -2.485390261E+01  3.760885773E+01  8.920806376E-07  0.00000E+00  9.000E+00
#rwgt            1           9   1.5894012021979444E-003           3     1824164           0
</event>
<event>
      6   9999  3.45752E-01  1.59849E+01 -1.00000E+00  1.68012E-01
      21    -1     0     0   501   502  0.000000000E+00  0.000000000E+00  9.497724255E+00  9.497724255E+00  0.000000000E+00  0.00000E+00  9.000E+00
      21    -1     0     0   512   503  0.000000000E+00  0.000000000E+00 -1.021997696E+03  1.021997696E+03  0.000000000E+00  0.00000E+00  9.000E+00
      25     1     1     2     0     0  7.995734821E-01 -9.899696707E+00 -6.972265924E+02  7.084125508E+02  1.249991106E+02  0.00000E+00  9.000E+00
       5     1     1     2   501     0 -5.048743888E-01 -2.396007557E+00 -2.009900403E+00  5.709461445E+00  4.750000000E+00  0.00000E+00  9.000E+00
      -5     1     1     2     0   503 -3.831205296E+00 -3.293094897E+00 -4.656520556E+00  8.352741569E+00  4.750000000E+00  0.00000E+00  9.000E+00
      21     1     1     2   512   502  3.536506203E+00  1.558879916E+01 -3.086069579E+02  3.090206659E+02  3.814697266E-06  0.00000E+00  9.000E+00
#rwgt            1           9   2.8778692880524577E-004           3     1826292           0
</event>
<event>
      6   9999 -3.45752E-01  2.98119E+01 -1.00000E+00  1.48015E-01
      21    -1     0     0   502   503  0.000000000E+00  0.000000000E+00  9.483936902E+01  9.483936902E+01  0.000000000E+00  0.00000E+00  9.000E+00
      21    -1     0     0   501   511  0.000000000E+00  0.000000000E+00 -1.641340808E+03  1.641340808E+03  0.000000000E+00  0.00000E+00  9.000E+00
      25     1     1     2     0     0 -2.450563002E+01 -2.963635320E+01 -1.534398823E+03  1.539962156E+03  1.249994159E+02  0.00000E+00  9.000E+00
       5     1     1     2   501     0  1.191548514E+00  2.621613146E+00  5.633440284E+01  5.660759743E+01  4.750000000E+00  0.00000E+00  9.000E+00
      -5     1     1     2     0   503  8.622684352E+00  1.074188682E+00  3.270235694E+01  3.416886326E+01  4.750000000E+00  0.00000E+00  9.000E+00
      21     1     1     2   502   511  1.469139716E+01  2.594055137E+01 -1.011393758E+02  1.054415605E+02  0.000000000E+00  0.00000E+00  9.000E+00
#rwgt            1           9  -1.1097358479813233E-005           3     1828063           0
</event>
<event>
      6   9999  3.45752E-01  1.31376E+01 -1.00000E+00  1.75517E-01
      21    -1     0     0   501   502  0.000000000E+00  0.000000000E+00  1.237176109E+01  1.237176109E+01  0.000000000E+00  0.00000E+00  9.000E+00
      21    -1     0     0   502   512  0.000000000E+00  0.000000000E+00 -1.086244892E+03  1.086244892E+03  0.000000000E+00  0.00000E+00  9.000E+00
      25     1     1     2     0     0  1.765511263E+01  9.906940897E+00 -8.453356637E+02  8.547676505E+02  1.250020058E+02  0.00000E+00  9.000E+00
       5     1     1     2   501     0  2.918437968E+00  9.705863964E-01  4.578593674E+00  7.279102840E+00  4.750000000E+00  0.00000E+00  9.000E+00
      -5     1     1     2     0   503 -1.104390807E+01 -1.834117123E+00 -2.277105790E+01  2.581502409E+01  4.750000000E+00  0.00000E+00  9.000E+00
      21     1     1     2   503   512 -9.529642526E+00 -9.043410170E+00 -2.103450034E+02  2.107548761E+02  2.697398305E-06  0.00000E+00  9.000E+00
#rwgt            1           9   8.3818164752931312E-005           3     1830385           0
</event>
<event>
      6   9999 -3.45752E-01  1.18252E+01 -1.00000E+00  1.79837E-01
      21    -1     0     0   501   511  0.000000000E+00  0.000000000E+00  7.120754423E+01  7.120754423E+01  0.000000000E+00  0.00000E+00  9.000E+00
      21    -1     0     0   502   503  0.000000000E+00  0.000000000E+00 -2.250825388E+02  2.250825388E+02  0.000000000E+00  0.00000E+00  9.000E+00
      25     1     1     2     0     0 -7.815602817E+00  5.734011095E+00 -1.996691548E+02  2.357734168E+02  1.250094803E+02  0.00000E+00  9.000E+00
       5     1     1     2   501     0  6.627493988E-01  5.312653198E+00  2.617007001E+01  2.713113682E+01  4.750000000E+00  0.00000E+00  9.000E+00
      -5     1     1     2     0   503  5.337101170E-01 -1.247624758E+00 -4.395780750E+00  6.612624474E+00  4.750000000E+00  0.00000E+00  9.000E+00
      21     1     1     2   502   511  6.619143302E+00 -9.799039536E+00  2.401987101E+01  2.677290491E+01  3.371747881E-07  0.00000E+00  9.000E+00
#rwgt            1           9  -3.7540335835476563E-003           3     1832415           0
</event>
<event>
      6   9999  3.45752E-01  3.18850E+01 -1.00000E+00  1.46146E-01
      21    -1     0     0   501   512  0.000000000E+00  0.000000000E+00  2.744853358E+02  2.744853358E+02  0.000000000E+00  0.00000E+00  9.000E+00
      21    -1     0     0   502   503  0.000000000E+00  0.000000000E+00 -1.760447946E+03  1.760447946E+03  0.000000000E+00  0.00000E+00  9.000E+00
      25     1     1     2     0     0  6.125988248E+00 -1.898798945E+02 -1.480731905E+03  1.498093374E+03  1.249995221E+02  0.00000E+00  9.000E+00
       5     1     1     2   501     0 -3.886161948E+00 -7.371405798E+00  1.128136398E+01  1.480782061E+01  4.750000000E+00  0.00000E+00  9.000E+00
      -5     1     1     2     0   503 -1.221377644E+01  1.669664420E+02 -2.419995617E+02  2.943014093E+02  4.750000000E+00  0.00000E+00  9.000E+00
      21     1     1     2   502   512  9.973950139E+00  3.028485827E+01  2.254874927E+02  2.277306779E+02  0.000000000E+00  0.00000E+00  9.000E+00
#rwgt            1           9   1.7183267853055660E-004           3     1834794           0
</event>
<event>
      6   9999  3.45752E-01  4.01078E+01 -1.00000E+00  1.40118E-01
      21    -1     0     0   501   511  0.000000000E+00  0.000000000E+00  8.972071972E+01  8.972071972E+01  0.000000000E+00  0.00000E+00  9.000E+00
      21    -1     0     0   502   503  0.000000000E+00  0.000000000E+00 -1.704948955E+02  1.704948955E+02  0.000000000E+00  0.00000E+00  9.000E+00
      25     1     1     2     0     0  3.232893972E+01 -1.682845257E+01 -3.601170315E+01  1.350926947E+02  1.249993449E+02  0.00000E+00  9.000E+00
       5     1     1     2   501     0 -1.974628526E+01  7.626473951E+00 -1.683856368E+01  2.746231259E+01  4.750000000E+00  0.00000E+00  9.000E+00
      -5     1     1     2     0   503 -3.779782462E+01 -2.198819594E+01 -3.588951585E+01  5.676950021E+01  4.750000000E+00  0.00000E+00  9.000E+00
      21     1     1     2   502   511  2.521517015E+01  3.119017456E+01  7.965606939E+00  4.089110770E+01  5.462855929E-07  0.00000E+00  9.000E+00
#rwgt            1           9  0.22929134002366147                3     1837525           0
</event>
<event>
      6   9999 -3.45752E-01  4.85194E+00 -1.00000E+00  2.31682E-01
      21    -1     0     0   501   502  0.000000000E+00  0.000000000E+00  2.214904750E+01  2.214904750E+01  0.000000000E+00  0.00000E+00  9.000E+00
      21    -1     0     0   512   503  0.000000000E+00  0.000000000E+00 -4.726071968E+02  4.726071968E+02  0.000000000E+00  0.00000E+00  9.000E+00
      25     1     1     2     0     0  8.365394166E+00  4.681197169E+00 -3.046360274E+02  3.294750043E+02  1.251350304E+02  0.00000E+00  9.000E+00
       5     1     1     2   501     0 -1.016453180E+00 -1.927416288E-01  8.891717355E+00  1.013387704E+01  4.750000000E+00  0.00000E+00  9.000E+00
      -5     1     1     2     0   503 -3.629989372E+00 -1.372251338E+00 -6.089136916E+01  6.119951989E+01  4.750000000E+00  0.00000E+00  9.000E+00
      21     1     1     2   512   502 -3.718951613E+00 -3.116204202E+00 -9.382247002E+01  9.394784303E+01  1.348699152E-06  0.00000E+00  9.000E+00
#rwgt            1           9  -4.9907449475135151                3     1838259           0
</event>
<event>
      6   9999  3.45752E-01  6.84452E+00 -1.00000E+00  2.06390E-01
      21    -1     0     0   511   502  0.000000000E+00  0.000000000E+00  1.602013980E+01  1.602013980E+01  0.000000000E+00  0.00000E+00  9.000E+00
      21    -1     0     0   502   503  0.000000000E+00  0.000000000E+00 -8.394176343E+02  8.394176343E+02  0.000000000E+00  0.00000E+00  9.000E+00
      25     1     1     2     0     0  1.750928941E+01  1.350069151E+01 -2.672893470E+02  2.959036986E+02  1.250062398E+02  0.00000E+00  9.000E+00
       5     1     1     2   501     0 -1.404694594E+00  1.669654143E-01 -2.873804367E+02  2.874231705E+02  4.750000000E+00  0.00000E+00  9.000E+00
      -5     1     1     2     0   503 -2.194541762E+01 -1.723588766E+01 -2.568280500E+02  2.583832173E+02  4.750000000E+00  0.00000E+00  9.000E+00
      21     1     1     2   511   501  5.840822808E+00  3.568230739E+00 -1.189966079E+01  1.372768766E+01  2.384185791E-07  0.00000E+00  9.000E+00
#rwgt            1           9   1.5409894651083003E-004           3     1842588           0
</event>
<event>
      6   9999  3.45752E-01  3.25095E+01 -1.00000E+00  1.45616E-01
      21    -1     0     0   501   502  0.000000000E+00  0.000000000E+00  7.616067202E+00  7.616067202E+00  0.000000000E+00  0.00000E+00  9.000E+00
      21    -1     0     0   502   512  0.000000000E+00  0.000000000E+00 -1.239276805E+03  1.239276805E+03  0.000000000E+00  0.00000E+00  9.000E+00
      25     1     1     2     0     0 -5.552677203E+00  2.454932125E+01 -6.545612442E+02  6.668650168E+02  1.250001074E+02  0.00000E+00  9.000E+00
       5     1     1     2   501     0 -4.524903512E-01  1.768741925E+00 -7.919937324E+00  9.413878198E+00  4.750000000E+00  0.00000E+00  9.000E+00
      -5     1     1     2     0   503  2.111439349E+00  5.957378212E+00 -1.046422821E+02  1.049405462E+02  4.750000000E+00  0.00000E+00  9.000E+00
      21     1     1     2   503   512  3.893728205E+00 -3.227544139E+01 -4.645372741E+02  4.656734309E+02  0.000000000E+00  0.00000E+00  9.000E+00
#rwgt            1           9   7.5090037439237978E-002           3     1845832           0
</event>
<event>
      6   9999  3.45752E-01  4.90118E+00 -1.00000E+00  2.30897E-01
      21    -1     0     0   501   502  0.000000000E+00  0.000000000E+00  2.655606703E+02  2.655606703E+02  0.000000000E+00  0.00000E+00  9.000E+00
      21    -1     0     0   502   511  0.000000000E+00  0.000000000E+00 -5.587221460E+02  5.587221460E+02  0.000000000E+00  0.00000E+00  9.000E+00
      25     1     1     2     0     0  4.788099119E+00  1.368866718E+00  1.706339972E+02  2.115745127E+02  1.249920547E+02  0.00000E+00  9.000E+00
       5     1     1     2   501     0 -8.710872422E-02 -6.832394119E-01  6.824096612E+01  6.840954876E+01  4.750000000E+00  0.00000E+00  9.000E+00
      -5     1     1     2     0   503  1.985333301E-01 -8.129753844E-01  5.169696351E+00  7.070262005E+00  4.750000000E+00  0.00000E+00  9.000E+00
      21     1     1     2   503   511 -4.899523725E+00  1.273480779E-01 -5.372061354E+02  5.372284928E+02  0.000000000E+00  0.00000E+00  9.000E+00
#rwgt            1           9   6.9311105153969767E-003           3     1846839           0
</event>
<event>
      6   9999  3.45752E-01  4.64141E+00 -1.00000E+00  2.35198E-01
      21    -1     0     0   512   502  0.000000000E+00  0.000000000E+00  1.679845258E+01  1.679845258E+01  0.000000000E+00  0.00000E+00  9.000E+00
      21    -1     0     0   502   503  0.000000000E+00  0.000000000E+00 -1.111805702E+03  1.111805702E+03  0.000000000E+00  0.00000E+00  9.000E+00
      25     1     1     2     0     0 -1.283134653E+01 -1.598359943E+01 -1.066840694E+03  1.074334301E+03  1.250000242E+02  0.00000E+00  9.000E+00
       5     1     1     2   501     0 -4.277140934E-01  1.572743593E+00  7.140221330E+00  8.729359793E+00  4.750000000E+00  0.00000E+00  9.000E+00
      -5     1     1     2     0   503  1.120917689E+01  1.024664644E+01 -3.725181254E+01  4.050801708E+01  4.750000000E+00  0.00000E+00  9.000E+00
      21     1     1     2   512   501  2.049883738E+00  4.164209395E+00  1.945035048E+00  5.032476980E+00  2.715120786E-07  0.00000E+00  9.000E+00
#rwgt            1           9  0.10593193914168628                3     1850273           0
</event>
<event>
      6   9999  3.45752E-01  6.33490E+01 -1.00000E+00  1.29509E-01
      21    -1     0     0   502   503  0.000000000E+00  0.000000000E+00  2.251733579E+02  2.251733579E+02  0.000000000E+00  0.00000E+00  9.000E+00
      21    -1     0     0   511   502  0.000000000E+00  0.000000000E+00 -3.737311122E+02  3.737311122E+02  0.000000000E+00  0.00000E+00  9.000E+00
      25     1     1     2     0     0  2.088862612E+01 -1.884603347E+00  5.704444361E+01  1.389903281E+02  1.249974252E+02  0.00000E+00  9.000E+00
       5     1     1     2   501     0  5.475325137E+01  4.218966789E+01 -5.412871778E+01  8.792250680E+01  4.750000000E+00  0.00000E+00  9.000E+00
      -5     1     1     2     0   503 -5.081583372E+01  1.797674622E+01  9.943764887E+01  1.132069824E+02  4.750000000E+00  0.00000E+00  9.000E+00
      21     1     1     2   511   501 -2.482604377E+01 -5.828181076E+01 -2.509111290E+02  2.587846529E+02  0.000000000E+00  0.00000E+00  9.000E+00
#rwgt            1           9  0.42788697437832407                3     1855098           0
</event>
<event>
      6   9999  3.45752E-01  1.62611E+01 -1.00000E+00  1.67388E-01
      21    -1     0     0   501   502  0.000000000E+00  0.000000000E+00  4.215200945E+01  4.215200945E+01  0.000000000E+00  0.00000E+00  9.000E+00
       2    -1     0     0   502     0  0.000000000E+00  0.000000000E+00 -1.556017452E+03  1.556017452E+03  0.000000000E+00  0.00000E+00  9.000E+00
      25     1     1     2     0     0 -8.539324431E+00  1.853209618E+01 -1.324445154E+03  1.330486677E+03  1.249938878E+02  0.00000E+00  9.000E+00
       5     1     1     2   501     0 -9.911970304E+00 -9.228358370E+00  3.509157836E+01  3.791294139E+01  4.750000000E+00  0.00000E+00  9.000E+00
      -5     1     1     2     0   503  8.928270062E+00 -2.248462668E+01 -6.649357333E+01  7.091706591E+01  4.750000000E+00  0.00000E+00  9.000E+00
       2     1     1     2   503     0  9.523024673E+00  1.318088887E+01 -1.580182935E+02  1.588527774E+02  2.697398305E-06  0.00000E+00  9.000E+00
#rwgt            1           9   5.5381303577355524E-004           3     1856234           0
</event>
<event>
      6   9999  3.45752E-01  9.03187E+00 -1.00000E+00  1.91975E-01
      21    -1     0     0   501   502  0.000000000E+00  0.000000000E+00  1.713465331E+03  1.713465331E+03  0.000000000E+00  0.00000E+00  9.000E+00
      21    -1     0     0   511   503  0.000000000E+00  0.000000000E+00 -2.276969151E+01  2.276969151E+01  0.000000000E+00  0.00000E+00  9.000E+00
      25     1     1     2     0     0 -6.906258484E-01 -9.792522216E+00  6.553760762E+02  6.672631179E+02  1.250035873E+02  0.00000E+00  9.000E+00
       5     1     1     2   501     0  1.477214272E+00  6.196894427E-02  1.040594235E+03  1.040606127E+03  4.750000000E+00  0.00000E+00  9.000E+00
      -5     1     1     2     0   503 -1.825690650E+00  7.586546028E-01  9.641426802E+00  1.092832622E+01  4.750000000E+00  0.00000E+00  9.000E+00
      21     1     1     2   511   502  1.039102227E+00  8.971898669E+00 -1.491609905E+01  1.743745136E+01  1.944244674E-06  0.00000E+00  9.000E+00
#rwgt            1           9   8.6051355041082210E-004           3     1859047           0
</event>
<event>
      6   9999  3.45752E-01  4.04335E+00 -1.00000E+00  2.46885E-01
      21    -1     0     0   501   502  0.000000000E+00  0.000000000E+00  1.736034560E+01  1.736034560E+01  0.000000000E+00  0.00000E+00  9.000E+00
      21    -1     0     0   502   512  0.000000000E+00  0.000000000E+00 -1.105105409E+03  1.105105409E+03  0.000000000E+00  0.00000E+00  9.000E+00
      25     1     1     2     0     0  1.245530898E+01 -3.997626224E+00 -1.054690534E+03  1.062152200E+03  1.249962314E+02  0.00000E+00  9.000E+00
       5     1     1     2   501     0 -4.392610060E+00 -3.920467413E+00  1.144233260E+01  1.371694438E+01  4.750000000E+00  0.00000E+00  9.000E+00
      -5     1     1     2     0   503 -7.459666828E+00  3.919963936E+00 -2.851192493E+01  3.010822329E+01  4.750000000E+00  0.00000E+00  9.000E+00
      21     1     1     2   503   512 -6.030320943E-01  3.998129702E+00 -1.598493794E+01  1.648838773E+01  2.920019320E-07  0.00000E+00  9.000E+00
#rwgt            1           9   1.4264023252405771E-002           3     1861614           0
</event>
<event>
      6   9999  3.45752E-01  4.87317E+00 -1.00000E+00  2.31342E-01
      21    -1     0     0   511   502  0.000000000E+00  0.000000000E+00  4.165302610E+00  4.165302610E+00  0.000000000E+00  0.00000E+00  9.000E+00
      21    -1     0     0   502   503  0.000000000E+00  0.000000000E+00 -1.690321716E+03  1.690321716E+03  0.000000000E+00  0.00000E+00  9.000E+00
      25     1     1     2     0     0  4.664414613E+00  4.129955512E+00 -1.282907050E+03  1.288997344E+03  1.249993599E+02  0.00000E+00  9.000E+00
       5     1     1     2   501     0 -1.774035750E-01  1.320741836E+00 -6.407667086E+00  8.086812012E+00  4.750000000E+00  0.00000E+00  9.000E+00
      -5     1     1     2     0   503 -2.936053588E+00 -8.309260754E-01 -3.742041143E+02  3.742467001E+02  4.750000000E+00  0.00000E+00  9.000E+00
      21     1     1     2   511   501 -1.550957450E+00 -4.619771273E+00 -2.263758187E+01  2.315616264E+01  4.768371582E-07  0.00000E+00  9.000E+00
#rwgt            1           9   6.3041477518696392E-004           3     1866724           0
</event>
<event>
      6   9999  3.45752E-01  9.88216E+00 -1.00000E+00  1.87738E-01
      21    -1     0     0   502   503  0.000000000E+00  0.000000000E+00  6.045909078E+00  6.045909078E+00  0.000000000E+00  0.00000E+00  9.000E+00
      21    -1     0     0   512   502  0.000000000E+00  0.000000000E+00 -1.511062484E+03  1.511062484E+03  0.000000000E+00  0.00000E+00  9.000E+00
      25     1     1     2     0     0  3.439102710E+00 -1.037391088E+01 -7.049433530E+02  7.160229396E+02  1.249970943E+02  0.00000E+00  9.000E+00
       5     1     1     2   501     0  7.986755318E-02 -3.834931592E-01 -1.764252790E+01  1.827497569E+01  4.750000000E+00  0.00000E+00  9.000E+00
      -5     1     1     2     0   503  4.404246737E-01  1.703112883E+00 -4.070396540E+01  4.101792129E+01  4.750000000E+00  0.00000E+00  9.000E+00
      21     1     1     2   512   501 -3.959394937E+00  9.054291154E+00 -7.417267290E+02  7.417925569E+02  0.000000000E+00  0.00000E+00  9.000E+00
#rwgt            1           9   5.1427171289742182E-004           3     1870617           0
</event>
<event>
      6   9999  3.45752E-01  2.61096E+01 -1.00000E+00  1.51849E-01
      21    -1     0     0   501   502  0.000000000E+00  0.000000000E+00  6.911129280E+01  6.911129280E+01  0.000000000E+00  0.00000E+00  9.000E+00
      21    -1     0     0   511   503  0.000000000E+00  0.000000000E+00 -1.302822643E+03  1.302822643E+03  0.000000000E+00  0.00000E+00  9.000E+00
      25     1     1     2     0     0  7.919550104E+01 -1.317275572E+02 -8.937271282E+02  9.154195824E+02  1.249830208E+02  0.00000E+00  9.000E+00
       5     1     1     2   501     0 -5.427984293E+00 -5.513987808E+00  4.242448735E+01  4.338509770E+01  4.750000000E+00  0.00000E+00  9.000E+00
      -5     1     1     2     0   503 -6.158417430E+01  1.141487536E+02 -3.061670031E+02  3.325407415E+02  4.750000000E+00  0.00000E+00  9.000E+00
      21     1     1     2   511   502 -1.218334244E+01  2.309279134E+01 -7.624170651E+01  8.058851442E+01  9.536743164E-07  0.00000E+00  9.000E+00
#rwgt            1           9   3.5005279998763347E-003           3     1872682           0
</event>
<event>
      6   9999 -3.45752E-01  1.06489E+01 -1.00000E+00  1.84363E-01
      21    -1     0     0   501   502  0.000000000E+00  0.000000000E+00  1.232537086E+01  1.232537086E+01  0.000000000E+00  0.00000E+00  9.000E+00
      21    -1     0     0   502   512  0.000000000E+00  0.000000000E+00 -1.042002480E+03  1.042002480E+03  0.000000000E+00  0.00000E+00  9.000E+00
      25     1     1     2     0     0 -2.845320173E+01  1.609470333E+01 -6.864564880E+02  6.985112024E+02  1.250070631E+02  0.00000E+00  9.000E+00
       5     1     1     2   501     0 -9.057530884E-01 -2.584320959E+00  6.563111265E-01  5.521987665E+00  4.750000000E+00  0.00000E+00  9.000E+00
      -5     1     1     2     0   503  2.645825042E+01 -2.375658103E+01 -1.009574799E+02  1.071419124E+02  4.750000000E+00  0.00000E+00  9.000E+00
      21     1     1     2   503   512  2.900704399E+00  1.024619866E+01 -2.429194521E+02  2.431527480E+02  0.000000000E+00  0.00000E+00  9.000E+00
#rwgt            1           9  -4.4098918015515751E-003           3     1876561           0
</event>
<event>
      6   9999 -3.45752E-01  1.36759E+02 -1.00000E+00  1.14928E-01
      21    -1     0     0   511   502  0.000000000E+00  0.000000000E+00  1.301561249E+03  1.301561249E+03  0.000000000E+00  0.00000E+00  9.000E+00
      21    -1     0     0   502   503  0.000000000E+00  0.000000000E+00 -4.228841286E+01  4.228841286E+01  0.000000000E+00  0.00000E+00  9.000E+00
      25     1     1     2     0     0  1.106655181E+01 -1.286866331E+01  6.120586273E+02  6.249225124E+02  1.249972485E+02  0.00000E+00  9.000E+00
       5     1     1     2   501     0 -1.105407320E+01  2.167842137E+01  3.483098424E+01  4.275402263E+01  4.750000000E+00  0.00000E+00  9.000E+00
      -5     1     1     2     0   503 -8.749032416E+01  9.631269108E+01  1.764366140E+02  2.192786641E+02  4.750000000E+00  0.00000E+00  9.000E+00
      21     1     1     2   511   501  8.747784555E+01 -1.051224491E+02  4.359466103E+02  4.568944624E+02  5.394796609E-06  0.00000E+00  9.000E+00
#rwgt            1           9 -0.15479853608407423                3     1878840           0
</event>
<event>
      6   9999 -3.45752E-01  3.31632E+00 -1.00000E+00  2.66000E-01
      21    -1     0     0   512   502  0.000000000E+00  0.000000000E+00  4.438945561E+00  4.438945561E+00  0.000000000E+00  0.00000E+00  9.000E+00
      21    -1     0     0   502   503  0.000000000E+00  0.000000000E+00 -2.611052994E+03  2.611052994E+03  0.000000000E+00  0.00000E+00  9.000E+00
      25     1     1     2     0     0 -7.688903829E+00  1.817338435E-01 -2.552235859E+03  2.555306659E+03  1.250003636E+02  0.00000E+00  9.000E+00
       5     1     1     2   501     0  1.888784740E+00 -1.874313887E+00 -7.620347752E-01  5.497613786E+00  4.750000000E+00  0.00000E+00  9.000E+00
      -5     1     1     2     0   503  2.485249167E+00  1.594416229E+00 -1.646931833E+01  1.739308980E+01  4.750000000E+00  0.00000E+00  9.000E+00
      21     1     1     2   512   501  3.314869923E+00  9.816381485E-02 -3.714683624E+01  3.729457657E+01  0.000000000E+00  0.00000E+00  9.000E+00
#rwgt            1           9  -2.3853807240442810E-004           3     1879661           0
</event>
<event>
      6   9999 -3.45752E-01  1.26310E+01 -1.00000E+00  1.77106E-01
      21    -1     0     0   501   502  0.000000000E+00  0.000000000E+00  4.429820651E+00  4.429820651E+00  0.000000000E+00  0.00000E+00  9.000E+00
      21    -1     0     0   502   511  0.000000000E+00  0.000000000E+00 -2.209456984E+03  2.209456984E+03  0.000000000E+00  0.00000E+00  9.000E+00
      25     1     1     2     0     0  1.764099786E+01 -1.114162794E+01 -1.897626380E+03  1.901853324E+03  1.249993893E+02  0.00000E+00  9.000E+00
       5     1     1     2   501     0  1.298340106E+00  2.247123626E+00 -5.479954946E+00  7.702444926E+00  4.750000000E+00  0.00000E+00  9.000E+00
      -5     1     1     2     0   503 -8.902684930E+00  1.656319414E+01 -9.157483008E+01  9.360613871E+01  4.750000000E+00  0.00000E+00  9.000E+00
      21     1     1     2   503   511 -1.003665304E+01 -7.668689827E+00 -2.103459991E+02  2.107248977E+02  2.697398305E-06  0.00000E+00  9.000E+00
#rwgt            1           9  -5.0172180258193314E-003           3     1885100           0
</event>
<event>
      6   9999  3.45752E-01  2.32219E+01 -1.00000E+00  1.55412E-01
      21    -1     0     0   501   512  0.000000000E+00  0.000000000E+00  2.213900236E+01  2.213900236E+01  0.000000000E+00  0.00000E+00  9.000E+00
      21    -1     0     0   502   503  0.000000000E+00  0.000000000E+00 -3.473094881E+03  3.473094881E+03  0.000000000E+00  0.00000E+00  9.000E+00
      25     1     1     2     0     0 -7.790303280E+00 -2.605085123E+01 -1.661318261E+03  1.666236541E+03  1.250060488E+02  0.00000E+00  9.000E+00
       5     1     1     2   501     0  5.573888035E+00 -3.727771493E+00  1.186132825E+01  1.442976493E+01  4.750000000E+00  0.00000E+00  9.000E+00
      -5     1     1     2     0   503 -4.367529922E+00  7.509609444E+00 -1.787344420E+03  1.787371844E+03  4.750000000E+00  0.00000E+00  9.000E+00
      21     1     1     2   502   512  6.583945167E+00  2.226901328E+01 -1.415452535E+01  2.719573265E+01  6.078504936E-07  0.00000E+00  9.000E+00
#rwgt            1           9   1.8534088744722192E-003           3     1887546           0
</event>
<event>
      6   9999  3.45752E-01  7.29175E+00 -1.00000E+00  2.02904E-01
      21    -1     0     0   511   502  0.000000000E+00  0.000000000E+00  6.196944416E+02  6.196944416E+02  0.000000000E+00  0.00000E+00  9.000E+00
      21    -1     0     0   502   503  0.000000000E+00  0.000000000E+00 -8.096066290E+01  8.096066290E+01  0.000000000E+00  0.00000E+00  9.000E+00
      25     1     1     2     0     0 -1.154331688E+02  3.294371450E+01  1.187641709E+02  2.100933080E+02  1.249966600E+02  0.00000E+00  9.000E+00
       5     1     1     2   501     0  1.840095284E+00 -3.418769046E+00  3.220187200E+02  3.220771529E+02  4.750000000E+00  0.00000E+00  9.000E+00
      -5     1     1     2     0   503  1.208800345E+02 -2.978907591E+01  7.738452008E+01  1.466638954E+02  4.750000000E+00  0.00000E+00  9.000E+00
      21     1     1     2   511   501 -7.286960974E+00  2.641304583E-01  2.056636775E+01  2.182074810E+01  0.000000000E+00  0.00000E+00  9.000E+00
#rwgt            1           9   5.5330345257430065E-003           3     1889864           0
</event>
<event>
      6   9999  3.45752E-01  1.20512E+01 -1.00000E+00  1.79044E-01
      21    -1     0     0   501   502  0.000000000E+00  0.000000000E+00  9.809444723E+02  9.809444723E+02  0.000000000E+00  0.00000E+00  9.000E+00
       1    -1     0     0   502     0  0.000000000E+00  0.000000000E+00 -5.457557777E+02  5.457557777E+02  0.000000000E+00  0.00000E+00  9.000E+00
      25     1     1     2     0     0 -6.717854091E+00  3.357359149E+00  6.266153537E+01  1.400271322E+02  1.249989133E+02  0.00000E+00  9.000E+00
       5     1     1     2   501     0  9.854236067E+00 -1.088702319E+01  8.771392377E+02  8.772750070E+02  4.750000000E+00  0.00000E+00  9.000E+00
      -5     1     1     2     0   503  8.290624182E+00  3.701567533E+00 -8.995854860E+00  1.363539351E+01  4.750000000E+00  0.00000E+00  9.000E+00
       1     1     1     2   503     0 -1.142700616E+01  3.828096503E+00 -4.956162235E+02  4.957627173E+02  7.629394531E-06  0.00000E+00  9.000E+00
#rwgt            1           9   1.0112527422771593E-002           3     1894588           0
</event>
<event>
      6   9999  3.45752E-01  8.58136E+00 -1.00000E+00  1.94475E-01
      21    -1     0     0   501   502  0.000000000E+00  0.000000000E+00  6.072201530E+02  6.072201530E+02  0.000000000E+00  0.00000E+00  9.000E+00
      21    -1     0     0   502   511  0.000000000E+00  0.000000000E+00 -1.049381116E+02  1.049381116E+02  0.000000000E+00  0.00000E+00  9.000E+00
      25     1     1     2     0     0  1.461159811E+02  4.737769170E+01  4.068767892E+02  4.524585280E+02  1.248017322E+02  0.00000E+00  9.000E+00
       5     1     1     2   501     0  1.547609617E+00  1.530571465E-01  8.536717942E+01  8.551336939E+01  4.750000000E+00  0.00000E+00  9.000E+00
      -5     1     1     2     0   503 -1.416393328E+02 -4.141944925E+01  3.158961615E+01  1.509891973E+02  4.750000000E+00  0.00000E+00  9.000E+00
      21     1     1     2   503   511 -6.024257972E+00 -6.111299603E+00 -2.155154337E+01  2.319716984E+01  2.384185791E-07  0.00000E+00  9.000E+00
#rwgt            1           9   7.6471326035814089E-003           3     1898461           0
</event>
<event>
      6   9999  3.45752E-01  1.27698E+01 -1.00000E+00  1.76661E-01
      21    -1     0     0   512   502  0.000000000E+00  0.000000000E+00  2.497128113E+01  2.497128113E+01  0.000000000E+00  0.00000E+00  9.000E+00
      21    -1     0     0   502   503  0.000000000E+00  0.000000000E+00 -1.040953710E+03  1.040953710E+03  0.000000000E+00  0.00000E+00  9.000E+00
      25     1     1     2     0     0 -2.187387171E+01 -3.234917621E+01 -3.571098790E+02  3.803654265E+02  1.250018262E+02  0.00000E+00  9.000E+00
       5     1     1     2   501     0 -4.349474619E+00 -3.266010318E+00  9.133351183E+00  1.164325370E+01  4.750000000E+00  0.00000E+00  9.000E+00
      -5     1     1     2     0   503  1.478739380E+01  2.993309215E+01 -6.543561099E+02  6.552244945E+02  4.750000000E+00  0.00000E+00  9.000E+00
      21     1     1     2   512   501  1.143595253E+01  5.682094378E+00 -1.364979136E+01  1.869181669E+01  1.685873940E-07  0.00000E+00  9.000E+00
#rwgt            1           9   1.3516755695218191E-003           3     1902647           0
</event>
<event>
      6   9999  3.45752E-01  6.77290E+00 -1.00000E+00  2.06981E-01
      21    -1     0     0   501   502  0.000000000E+00  0.000000000E+00  4.295565109E+00  4.295565109E+00  0.000000000E+00  0.00000E+00  9.000E+00
      21    -1     0     0   502   511  0.000000000E+00  0.000000000E+00 -2.755147135E+03  2.755147135E+03  0.000000000E+00  0.00000E+00  9.000E+00
      25     1     1     2     0     0  2.413255835E+01  2.347322899E+00 -1.701368200E+03  1.706124505E+03  1.249767423E+02  0.00000E+00  9.000E+00
       5     1     1     2   501     0  1.853467456E+00 -5.235749288E-01 -2.769432542E+00  5.825953048E+00  4.750000000E+00  0.00000E+00  9.000E+00
      -5     1     1     2     0   503 -2.482129824E+01 -8.495752642E+00 -4.814023555E+02  4.821400886E+02  4.750000000E+00  0.00000E+00  9.000E+00
      21     1     1     2   503   511 -1.164727566E+00  6.672004673E+00 -5.653115818E+02  5.653521528E+02  7.629394531E-06  0.00000E+00  9.000E+00
#rwgt            1           9  0.85020672397695618                3     1905448           0
</event>
<event>
      6   9999  3.45752E-01  6.10719E+00 -1.00000E+00  2.12992E-01
      21    -1     0     0   502   503  0.000000000E+00  0.000000000E+00  8.708439329E+00  8.708439329E+00  0.000000000E+00  0.00000E+00  9.000E+00
       4    -1     0     0   501     0  0.000000000E+00  0.000000000E+00 -1.458140821E+03  1.458140821E+03  0.000000000E+00  0.00000E+00  9.000E+00
      25     1     1     2     0     0 -8.177295764E+00  1.021241271E+01 -4.798402524E+02  4.960271033E+02  1.250002313E+02  0.00000E+00  9.000E+00
       5     1     1     2   501     0  1.201407838E+01 -4.146408263E+00 -2.471828315E+02  2.475549343E+02  4.750000000E+00  0.00000E+00  9.000E+00
      -5     1     1     2     0   503 -2.519439413E+00 -1.025832277E-01 -1.697509341E+01  1.780658290E+01  4.750000000E+00  0.00000E+00  9.000E+00
       4     1     1     2   502     0 -1.317343202E+00 -5.963421221E+00 -7.054342039E+02  7.054606394E+02  7.629394531E-06  0.00000E+00  9.000E+00
#rwgt            1           9   8.1577374282232454E-002           3     1909087           0
</event>
<event>
      6   9999  3.45752E-01  1.88023E+00 -1.00000E+00  3.43620E-01
      21    -1     0     0   501   502  0.000000000E+00  0.000000000E+00  1.559120823E+01  1.559120823E+01  0.000000000E+00  0.00000E+00  9.000E+00
      21    -1     0     0   502   511  0.000000000E+00  0.000000000E+00 -3.390679856E+03  3.390679856E+03  0.000000000E+00  0.00000E+00  9.000E+00
      25     1     1     2     0     0 -3.959581996E+00 -1.414801200E+00 -2.397126866E+03  2.400387243E+03  1.249960940E+02  0.00000E+00  9.000E+00
       5     1     1     2   501     0  1.902769933E+00 -6.502402398E-01  1.341083127E+01  1.436858522E+01  4.750000000E+00  0.00000E+00  9.000E+00
      -5     1     1     2     0   503  3.807212686E+00  2.751592513E+00 -1.587501992E+02  1.588906995E+02  4.750000000E+00  0.00000E+00  9.000E+00
      21     1     1     2   503   511 -1.750400622E+00 -6.865510733E-01 -8.326224134E+02  8.326245364E+02  1.078959322E-05  0.00000E+00  9.000E+00
#rwgt            1           9   1.4057104916830241E-003           3     1912482           0
</event>
<event>
      6   9999  3.45752E-01  2.58479E+01 -1.00000E+00  1.52148E-01
      21    -1     0     0   501   502  0.000000000E+00  0.000000000E+00  6.359376979E+00  6.359376979E+00  0.000000000E+00  0.00000E+00  9.000E+00
      21    -1     0     0   502   512  0.000000000E+00  0.000000000E+00 -1.374565026E+03  1.374565026E+03  0.000000000E+00  0.00000E+00  9.000E+00
      25     1     1     2     0     0  3.306888040E+01  1.502902990E+01 -8.169905463E+02  8.272956020E+02  1.250001512E+02  0.00000E+00  9.000E+00
       5     1     1     2   501     0  7.242644135E-01  6.490327260E-01 -1.779382936E+01  1.844257753E+01  4.750000000E+00  0.00000E+00  9.000E+00
      -5     1     1     2     0   503 -1.325936144E+01  2.161445240E-02 -3.015400127E+02  3.018687676E+02  4.750000000E+00  0.00000E+00  9.000E+00
      21     1     1     2   503   512 -2.053378337E+01 -1.569967707E+01 -2.318812612E+02  2.333174563E+02  0.000000000E+00  0.00000E+00  9.000E+00
#rwgt            1           9   3.1182464541366917E-004           3     1922885           0
</event>
<event>
      6   9999 -3.45752E-01  4.53243E+01 -1.00000E+00  1.37109E-01
      21    -1     0     0   511   502  0.000000000E+00  0.000000000E+00  4.526129805E+01  4.526129805E+01  0.000000000E+00  0.00000E+00  9.000E+00
      21    -1     0     0   502   503  0.000000000E+00  0.000000000E+00 -1.181746234E+03  1.181746234E+03  0.000000000E+00  0.00000E+00  9.000E+00
      25     1     1     2     0     0  1.351105390E+01 -1.080652824E+02 -1.000615236E+03  1.014256351E+03  1.249977669E+02  0.00000E+00  9.000E+00
       5     1     1     2   501     0 -1.531107701E+01  6.702008561E+01 -1.106517192E+01  6.979342006E+01  4.750000000E+00  0.00000E+00  9.000E+00
      -5     1     1     2     0   503  7.296785547E+00 -3.944536367E+00 -7.504090022E+01  7.564721840E+01  4.750000000E+00  0.00000E+00  9.000E+00
      21     1     1     2   511   501 -5.496762441E+00  4.498973311E+01 -4.976362868E+01  6.731054317E+01  1.168007728E-06  0.00000E+00  9.000E+00
#rwgt            1           9  -3.9626923489812456E-002           3     1923982           0
</event>
<event>
      6   9999  3.45752E-01  8.64983E+00 -1.00000E+00  1.94083E-01
      21    -1     0     0   501   512  0.000000000E+00  0.000000000E+00  5.634511183E+01  5.634511183E+01  0.000000000E+00  0.00000E+00  9.000E+00
      21    -1     0     0   502   503  0.000000000E+00  0.000000000E+00 -7.090751173E+02  7.090751173E+02  0.000000000E+00  0.00000E+00  9.000E+00
      25     1     1     2     0     0  6.469725449E+00 -1.057904669E+00 -6.752126864E+02  6.867168534E+02  1.249995537E+02  0.00000E+00  9.000E+00
       5     1     1     2   501     0  3.238114730E+00  2.044095273E-01  1.643724687E+00  5.982599862E+00  4.750000000E+00  0.00000E+00  9.000E+00
      -5     1     1     2     0   503 -1.193040495E+00 -6.689232393E-01 -2.529982936E+01  2.577818205E+01  4.750000000E+00  0.00000E+00  9.000E+00
      21     1     1     2   502   512 -8.514799684E+00  1.522418381E+00  4.613878561E+01  4.694259376E+01  1.168007728E-06  0.00000E+00  9.000E+00
#rwgt            1           9   1.6648626472661999E-005           3     1925563           0
</event>
<event>
      6   9999  3.45752E-01  8.56943E+00 -1.00000E+00  1.94544E-01
      21    -1     0     0   501   502  0.000000000E+00  0.000000000E+00  4.072762191E+01  4.072762191E+01  0.000000000E+00  0.00000E+00  9.000E+00
      21    -1     0     0   511   503  0.000000000E+00  0.000000000E+00 -1.342748780E+03  1.342748780E+03  0.000000000E+00  0.00000E+00  9.000E+00
      25     1     1     2     0     0 -2.467165516E+01  1.380030921E+01 -1.061610244E+03  1.069318875E+03  1.250096277E+02  0.00000E+00  9.000E+00
       5     1     1     2   501     0  6.475840217E+00 -1.318456132E+00  3.587987079E+01  3.679133677E+01  4.750000000E+00  0.00000E+00  9.000E+00
      -5     1     1     2     0   503  1.159873487E+01 -7.012519069E+00 -1.229206764E+02  1.237568635E+02  4.750000000E+00  0.00000E+00  9.000E+00
      21     1     1     2   511   502  6.597080083E+00 -5.469334006E+00 -1.533701088E+02  1.536093271E+02  1.907348633E-06  0.00000E+00  9.000E+00
#rwgt            1           9   1.1770276720420162E-003           3     1928067           0
</event>
<event>
      6   9999 -3.45752E-01  1.79936E+01 -1.00000E+00  1.63796E-01
      21    -1     0     0   502   503  0.000000000E+00  0.000000000E+00  4.173910701E+01  4.173910701E+01  0.000000000E+00  0.00000E+00  9.000E+00
       2    -1     0     0   501     0  0.000000000E+00  0.000000000E+00 -1.672347745E+03  1.672347745E+03  0.000000000E+00  0.00000E+00  9.000E+00
      25     1     1     2     0     0  7.236758854E+00 -1.272018536E+01 -6.071965725E+01  1.397354575E+02  1.249997901E+02  0.00000E+00  9.000E+00
       5     1     1     2   501     0  8.316286299E+00 -2.117879478E+00 -1.143095396E+03  1.143137478E+03  4.750000000E+00  0.00000E+00  9.000E+00
      -5     1     1     2     0   503  6.730981427E-01  7.061155819E+00 -7.013277403E+00  1.104814657E+01  4.750000000E+00  0.00000E+00  9.000E+00
       2     1     1     2   502     0 -1.622614330E+01  7.776909022E+00 -4.197803068E+02  4.201657697E+02  5.394796609E-06  0.00000E+00  9.000E+00
#rwgt            1           9  -2.5880442237765387E-002           3     1932024           0
</event>
<event>
      6   9999  3.45752E-01  3.24014E+00 -1.00000E+00  2.68448E-01
      21    -1     0     0   501   511  0.000000000E+00  0.000000000E+00  3.703542665E+01  3.703542665E+01  0.000000000E+00  0.00000E+00  9.000E+00
      21    -1     0     0   502   503  0.000000000E+00  0.000000000E+00 -1.088770285E+03  1.088770285E+03  0.000000000E+00  0.00000E+00  9.000E+00
      25     1     1     2     0     0  1.508290022E+02  1.141295723E+00 -5.968866957E+02  6.282115095E+02  1.250011308E+02  0.00000E+00  9.000E+00
       5     1     1     2   501     0 -3.401365538E-01 -1.788439673E+00  6.599193486E+00  8.332230434E+00  4.750000000E+00  0.00000E+00  9.000E+00
      -5     1     1     2     0   503 -1.489567961E+02  3.502189868E+00 -4.624392103E+02  4.858734178E+02  4.750000000E+00  0.00000E+00  9.000E+00
      21     1     1     2   502   511 -1.532069609E+00 -2.855045918E+00  9.918539552E-01  3.388554080E+00  1.026991662E-07  0.00000E+00  9.000E+00
#rwgt            1           9   1.5604261064408969E-004           3     1934341           0
</event>
<event>
      6   9999  3.45752E-01  1.24836E+02 -1.00000E+00  1.16479E-01
      21    -1     0     0   502   512  0.000000000E+00  0.000000000E+00  1.243403561E+02  1.243403561E+02  0.000000000E+00  0.00000E+00  9.000E+00
      21    -1     0     0   501   502  0.000000000E+00  0.000000000E+00 -1.494885899E+03  1.494885899E+03  0.000000000E+00  0.00000E+00  9.000E+00
      25     1     1     2     0     0 -3.547122614E+01 -7.429473178E+00 -3.800576186E+01  1.355647628E+02  1.249798464E+02  0.00000E+00  9.000E+00
       5     1     1     2   501     0  6.766933382E+00 -1.934325622E+01 -1.055702737E+03  1.055912300E+03  4.750000000E+00  0.00000E+00  9.000E+00
      -5     1     1     2     0   503  6.791349555E+01 -9.174563017E+01 -2.804856471E+02  3.028601398E+02  4.750000000E+00  0.00000E+00  9.000E+00
      21     1     1     2   503   512 -3.920920278E+01  1.185183596E+02  3.648603458E+00  1.248890525E+02  3.314897194E-06  0.00000E+00  9.000E+00
#rwgt            1           9   1.1792673223483049E-003           3     1941728           0
</event>
<event>
      6   9999  3.45752E-01  3.22125E+01 -1.00000E+00  1.45866E-01
      21    -1     0     0   511   502  0.000000000E+00  0.000000000E+00  4.381217700E+01  4.381217700E+01  0.000000000E+00  0.00000E+00  9.000E+00
      21    -1     0     0   502   503  0.000000000E+00  0.000000000E+00 -1.191346101E+03  1.191346101E+03  0.000000000E+00  0.00000E+00  9.000E+00
      25     1     1     2     0     0 -7.597673856E-01  3.250317690E+01 -1.286410447E+02  1.822834905E+02  1.249868744E+02  0.00000E+00  9.000E+00
       5     1     1     2   501     0 -3.749478997E+00  3.200575853E+00  4.238792710E+00  8.051840919E+00  4.750000000E+00  0.00000E+00  9.000E+00
      -5     1     1     2     0   503 -1.686979332E+01 -1.160849878E+01 -1.009705694E+03  1.009924501E+03  4.750000000E+00  0.00000E+00  9.000E+00
      21     1     1     2   511   501  2.137903970E+01 -2.409525397E+01 -1.342597798E+01  3.489844534E+01  6.307962682E-07  0.00000E+00  9.000E+00
#rwgt            1           9   9.0724567530301049E-003           3     1942353           0
</event>
<event>
      6   9999  3.45752E-01  3.44325E+00 -1.00000E+00  2.62141E-01
      21    -1     0     0   501   502  0.000000000E+00  0.000000000E+00  4.818063654E+00  4.818063654E+00  0.000000000E+00  0.00000E+00  9.000E+00
      21    -1     0     0   502   512  0.000000000E+00  0.000000000E+00 -2.488903957E+03  2.488903957E+03  0.000000000E+00  0.00000E+00  9.000E+00
      25     1     1     2     0     0  2.950535273E+00  9.819832818E-01 -1.367914159E+03  1.373616956E+03  1.249988928E+02  0.00000E+00  9.000E+00
       5     1     1     2   501     0 -1.284074585E+00  1.199969598E+00 -1.541133501E+00  5.293993487E+00  4.750000000E+00  0.00000E+00  9.000E+00
      -5     1     1     2     0   503 -2.765085471E-01  9.682837063E-01 -6.734700397E+01  6.752181480E+01  4.750000000E+00  0.00000E+00  9.000E+00
      21     1     1     2   503   512 -1.389952141E+00 -3.150236586E+00 -1.047283597E+03  1.047289257E+03  2.157918644E-05  0.00000E+00  9.000E+00
#rwgt            1           9   2.0484549400402461E-003           3     1943904           0
</event>
<event>
      6   9999  3.45752E-01  1.22763E+02 -1.00000E+00  1.16768E-01
      21    -1     0     0   501   511  0.000000000E+00  0.000000000E+00  1.028607775E+02  1.028607775E+02  0.000000000E+00  0.00000E+00  9.000E+00
      21    -1     0     0   502   503  0.000000000E+00  0.000000000E+00 -1.735131716E+03  1.735131716E+03  0.000000000E+00  0.00000E+00  9.000E+00
      25     1     1     2     0     0 -6.343563202E+01  5.128200694E+01 -6.585013490E+02  6.752022199E+02  1.249803486E+02  0.00000E+00  9.000E+00
       5     1     1     2   501     0 -4.850567684E+01  2.134107369E+01  4.075098800E+01  6.701826344E+01  4.750000000E+00  0.00000E+00  9.000E+00
      -5     1     1     2     0   503  9.560621471E+00 -4.880498333E+00 -9.622865764E+02  9.623581674E+02  4.750000000E+00  0.00000E+00  9.000E+00
      21     1     1     2   502   511  1.023806874E+02 -6.774258229E+01 -5.223400133E+01  1.334138430E+02  6.743495762E-07  0.00000E+00  9.000E+00
#rwgt            1           9   3.1676593545354893E-003           3     1949523           0
</event>
<event>
      6   9999 -3.45752E-01  5.52646E+01 -1.00000E+00  1.32502E-01
      21    -1     0     0   512   503  0.000000000E+00  0.000000000E+00  6.927274204E+02  6.927274204E+02  0.000000000E+00  0.00000E+00  9.000E+00
      21    -1     0     0   501   502  0.000000000E+00  0.000000000E+00 -4.351810055E+03  4.351810055E+03  0.000000000E+00  0.00000E+00  9.000E+00
      25     1     1     2     0     0  4.325604562E+01 -9.946132245E+01 -1.801242914E+02  2.446090810E+02  1.250008079E+02  0.00000E+00  9.000E+00
       5     1     1     2   501     0  1.697564494E+00 -2.369250467E+00 -3.686240024E+03  3.686244236E+03  4.750000000E+00  0.00000E+00  9.000E+00
      -5     1     1     2     0   503 -5.458053471E+01  4.741094598E+01 -4.491369279E+02  4.549432657E+02  4.750000000E+00  0.00000E+00  9.000E+00
      21     1     1     2   512   502  9.626924595E+00  5.441962693E+01  6.564186086E+02  6.587408923E+02  0.000000000E+00  0.00000E+00  9.000E+00
#rwgt            1           9  -5.4214333725098582E-002           3     1950296           0
</event>
<event>
      6   9999  3.45752E-01  3.11952E+01 -1.00000E+00  1.46749E-01
      21    -1     0     0   511   502  0.000000000E+00  0.000000000E+00  2.577746222E+01  2.577746222E+01  0.000000000E+00  0.00000E+00  9.000E+00
      21    -1     0     0   502   503  0.000000000E+00  0.000000000E+00 -8.968074020E+02  8.968074020E+02  0.000000000E+00  0.00000E+00  9.000E+00
      25     1     1     2     0     0  1.171155616E+00 -3.389321706E+01 -6.967071494E+02  7.086612496E+02  1.250991323E+02  0.00000E+00  9.000E+00
       5     1     1     2   501     0 -3.195029733E-01  2.449144565E+01 -3.183532347E+01  4.044729055E+01  4.750000000E+00  0.00000E+00  9.000E+00
      -5     1     1     2     0   503 -3.032692446E+01  1.961679803E+01 -1.370522232E+02  1.418111967E+02  4.750000000E+00  0.00000E+00  9.000E+00
      21     1     1     2   511   501  2.947527182E+01 -1.021502662E+01 -5.435243666E+00  3.166512737E+01  1.067905001E-06  0.00000E+00  9.000E+00
#rwgt            1           9   2.8801030899553213E-004           3     1951484           0
</event>
<event>
      6   9999 -3.45752E-01  4.73436E+00 -1.00000E+00  2.33613E-01
      21    -1     0     0   501   502  0.000000000E+00  0.000000000E+00  9.358455325E+01  9.358455325E+01  0.000000000E+00  0.00000E+00  9.000E+00
      21    -1     0     0   512   503  0.000000000E+00  0.000000000E+00 -1.657669218E+03  1.657669218E+03  0.000000000E+00  0.00000E+00  9.000E+00
      25     1     1     2     0     0 -4.082988017E+01  7.343613130E+01 -1.217088983E+02  1.936442455E+02  1.250003735E+02  0.00000E+00  9.000E+00
       5     1     1     2   501     0 -8.893117070E+00  6.233501470E+00  5.528388770E+01  5.654038213E+01  4.750000000E+00  0.00000E+00  9.000E+00
      -5     1     1     2     0   503  4.577252821E+01 -8.227884001E+01 -1.468926813E+03  1.471948870E+03  4.750000000E+00  0.00000E+00  9.000E+00
      21     1     1     2   512   502  3.950469035E+00  2.609207241E+00 -2.873284058E+01  2.912027293E+01  3.371747881E-07  0.00000E+00  9.000E+00
#rwgt            1           9  -5.8949993667571627E-005           3     1953481           0
</event>
<event>
      6   9999  3.45752E-01  1.82882E+01 -1.00000E+00  1.63234E-01
      21    -1     0     0   501   502  0.000000000E+00  0.000000000E+00  1.342038758E+03  1.342038758E+03  0.000000000E+00  0.00000E+00  9.000E+00
      21    -1     0     0   502   511  0.000000000E+00  0.000000000E+00 -4.743239962E+02  4.743239962E+02  0.000000000E+00  0.00000E+00  9.000E+00
      25     1     1     2     0     0  4.493491988E+01  2.206726473E+01  7.219873975E+00  1.348449444E+02  1.249996850E+02  0.00000E+00  9.000E+00
       5     1     1     2   501     0 -1.323087151E+01 -1.661516106E+01  1.215992085E+03  1.216186841E+03  4.750000000E+00  0.00000E+00  9.000E+00
      -5     1     1     2     0   503 -3.465951300E+01 -2.349991926E+01  4.659296874E+01  6.282511665E+01  4.750000000E+00  0.00000E+00  9.000E+00
      21     1     1     2   503   511  2.955464630E+00  1.804781559E+01 -4.020901665E+02  4.025058514E+02  5.394796609E-06  0.00000E+00  9.000E+00
#rwgt            1           9   1.4234700648959309                3     1961058           0
</event>
<event>
      6   9999  3.45752E-01  9.14586E+00 -1.00000E+00  1.91373E-01
      21    -1     0     0   501   502  0.000000000E+00  0.000000000E+00  8.934745716E+02  8.934745716E+02  0.000000000E+00  0.00000E+00  9.000E+00
       2    -1     0     0   502     0  0.000000000E+00  0.000000000E+00 -4.764042795E+02  4.764042795E+02  0.000000000E+00  0.00000E+00  9.000E+00
      25     1     1     2     0     0 -2.125955545E+00 -3.490870208E+01  2.083956480E+02  2.455126525E+02  1.249983171E+02  0.00000E+00  9.000E+00
       5     1     1     2   501     0  1.075951963E+01  1.780765312E+00  6.544094088E+02  6.545175133E+02  4.750000000E+00  0.00000E+00  9.000E+00
      -5     1     1     2     0   503  3.657343118E-01  3.475872263E+01 -1.361614475E+01  3.763328924E+01  4.750000000E+00  0.00000E+00  9.000E+00
       2     1     1     2   503     0 -8.999298399E+00 -1.630785863E+00 -4.321186200E+02  4.322153960E+02  0.000000000E+00  0.00000E+00  9.000E+00
#rwgt            1           9   4.4431689692879951E-004           3     1963927           0
</event>
<event>
      6   9999  3.45752E-01  2.60083E+01 -1.00000E+00  1.51964E-01
      21    -1     0     0   501   502  0.000000000E+00  0.000000000E+00  2.820965197E+01  2.820965197E+01  0.000000000E+00  0.00000E+00  9.000E+00
      21    -1     0     0   502   511  0.000000000E+00  0.000000000E+00 -1.971346255E+03  1.971346255E+03  0.000000000E+00  0.00000E+00  9.000E+00
      25     1     1     2     0     0 -1.704172852E+01 -3.904991058E+00 -1.768504866E+03  1.773002698E+03  1.249937425E+02  0.00000E+00  9.000E+00
       5     1     1     2   501     0 -8.890449930E+00  7.832708283E+00  2.180519849E+01  2.526698637E+01  4.750000000E+00  0.00000E+00  9.000E+00
      -5     1     1     2     0   503  8.110093476E+00  1.501439462E+01 -7.044911990E+01  7.264190703E+01  4.750000000E+00  0.00000E+00  9.000E+00
      21     1     1     2   503   511  1.782208497E+01 -1.894211184E+01 -1.259878157E+02  1.286443159E+02  2.336015456E-06  0.00000E+00  9.000E+00
#rwgt            1           9   7.5172766613527985E-004           3     1967663           0
</event>
<event>
      6   9999  3.45752E-01  8.82888E+00 -1.00000E+00  1.93078E-01
      21    -1     0     0   501   502  0.000000000E+00  0.000000000E+00  1.881695550E+02  1.881695550E+02  0.000000000E+00  0.00000E+00  9.000E+00
       3    -1     0     0   502     0  0.000000000E+00  0.000000000E+00 -2.230296296E+02  2.230296296E+02  0.000000000E+00  0.00000E+00  9.000E+00
      25     1     1     2     0     0  8.660308736E+01 -6.058487638E+00 -6.878960283E+01  1.670180326E+02  1.250048548E+02  0.00000E+00  9.000E+00
       5     1     1     2   501     0  7.103862131E-01  3.870089952E+00  1.111050639E+02  1.112761428E+02  4.750000000E+00  0.00000E+00  9.000E+00
      -5     1     1     2     0   503 -8.015283221E+01 -2.976328155E+00 -3.136826004E+01  8.625465366E+01  4.750000000E+00  0.00000E+00  9.000E+00
       3     1     1     2   503     0 -7.160641361E+00  5.164725840E+00 -4.580727562E+01  4.665035560E+01  6.743495762E-07  0.00000E+00  9.000E+00
#rwgt            1           9   3.0525741723800960E-005           3     1970407           0
</event>
<event>
      6   9999  3.45752E-01  1.55507E+01 -1.00000E+00  1.69025E-01
      21    -1     0     0   501   502  0.000000000E+00  0.000000000E+00  3.131628832E+02  3.131628832E+02  0.000000000E+00  0.00000E+00  9.000E+00
      21    -1     0     0   511   503  0.000000000E+00  0.000000000E+00 -5.987609284E+01  5.987609284E+01  0.000000000E+00  0.00000E+00  9.000E+00
      25     1     1     2     0     0  1.054839131E+01 -1.648969241E+01  2.637145690E+02  2.924952703E+02  1.249997229E+02  0.00000E+00  9.000E+00
       5     1     1     2   501     0  5.086302879E-01 -3.644558299E-01  2.239928833E+01  2.290594138E+01  4.750000000E+00  0.00000E+00  9.000E+00
      -5     1     1     2     0   503 -1.573328191E+00  4.530029816E+00  1.000567251E+01  1.206948690E+01  4.750000000E+00  0.00000E+00  9.000E+00
      21     1     1     2   511   502 -9.483693406E+00  1.232411842E+01 -4.283273951E+01  4.556827744E+01  1.066240300E-06  0.00000E+00  9.000E+00
#rwgt            1           9   3.8000834442440917E-003           3     1974413           0
</event>
<event>
      6   9999  3.45752E-01  3.62376E+01 -1.00000E+00  1.42720E-01
      21    -1     0     0   501   502  0.000000000E+00  0.000000000E+00  2.659591837E+01  2.659591837E+01  0.000000000E+00  0.00000E+00  9.000E+00
      21    -1     0     0   512   503  0.000000000E+00  0.000000000E+00 -1.932425577E+03  1.932425577E+03  0.000000000E+00  0.00000E+00  9.000E+00
      25     1     1     2     0     0 -5.239637262E+01  8.025473508E+01 -9.398628501E+02  9.529709494E+02  1.250010043E+02  0.00000E+00  9.000E+00
       5     1     1     2   501     0  1.597694487E+00  6.778283378E-01 -9.378658125E-01  5.143361859E+00  4.750000000E+00  0.00000E+00  9.000E+00
      -5     1     1     2     0   503  8.670478746E+01 -7.604248824E+01 -1.725273092E+02  2.075774918E+02  4.750000000E+00  0.00000E+00  9.000E+00
      21     1     1     2   512   502 -3.590610933E+01 -4.890075174E+00 -7.925016332E+02  7.933296920E+02  0.000000000E+00  0.00000E+00  9.000E+00
#rwgt            1           9   1.0727052523977634E-004           3     1976097           0
</event>
<event>
      6   9999  3.45752E-01  1.55428E+01 -1.00000E+00  1.69044E-01
      21    -1     0     0   501   511  0.000000000E+00  0.000000000E+00  2.690999286E+01  2.690999286E+01  0.000000000E+00  0.00000E+00  9.000E+00
      21    -1     0     0   502   503  0.000000000E+00  0.000000000E+00 -7.447518635E+02  7.447518635E+02  0.000000000E+00  0.00000E+00  9.000E+00
      25     1     1     2     0     0  1.290244351E+01 -2.005805581E+01 -5.127340912E+02  5.282857162E+02  1.249830028E+02  0.00000E+00  9.000E+00
       5     1     1     2   501     0  3.894211114E+00  1.459085628E+00 -3.747675862E+01  3.800478585E+01  4.750000000E+00  0.00000E+00  9.000E+00
      -5     1     1     2     0   503 -2.705584825E+00  1.203995895E+01 -1.830211567E+02  1.834981937E+02  4.750000000E+00  0.00000E+00  9.000E+00
      21     1     1     2   502   511 -1.409106980E+01  6.559011230E+00  1.539013582E+01  2.187316066E+01  1.440411326E-06  0.00000E+00  9.000E+00
#rwgt            1           9   4.7682125781113392E-003           3     1977304           0
</event>
<event>
      6   9999  3.45752E-01  7.82309E+00 -1.00000E+00  1.99172E-01
      21    -1     0     0   512   502  0.000000000E+00  0.000000000E+00  1.663395030E+02  1.663395030E+02  0.000000000E+00  0.00000E+00  9.000E+00
      21    -1     0     0   502   503  0.000000000E+00  0.000000000E+00 -9.275541523E+02  9.275541523E+02  0.000000000E+00  0.00000E+00  9.000E+00
      25     1     1     2     0     0  6.912286934E+00 -1.430500021E+00 -8.957988120E+02  9.045216118E+02  1.251159804E+02  0.00000E+00  9.000E+00
       5     1     1     2   501     0 -9.447318264E-01 -4.055654516E+00  1.107572307E+01  1.275048993E+01  4.750000000E+00  0.00000E+00  9.000E+00
      -5     1     1     2     0   503 -1.552022078E+00 -9.716921608E-01 -2.620952678E+01  2.669933992E+01  4.750000000E+00  0.00000E+00  9.000E+00
      21     1     1     2   512   501 -4.415533029E+00  6.457846698E+00  1.497179663E+02  1.499222137E+02  3.814697266E-06  0.00000E+00  9.000E+00
#rwgt            1           9   8.8385904781194982E-005           3     1978817           0
</event>
<event>
      6   9999  3.45752E-01  5.88901E+00 -1.00000E+00  2.15194E-01
      21    -1     0     0   502   503  0.000000000E+00  0.000000000E+00  8.792818457E+02  8.792818457E+02  0.000000000E+00  0.00000E+00  9.000E+00
      21    -1     0     0   501   511  0.000000000E+00  0.000000000E+00 -1.384850556E+01  1.384850556E+01  0.000000000E+00  0.00000E+00  9.000E+00
      25     1     1     2     0     0  1.294456662E+00 -1.313878830E+01  7.918171080E+02  8.017319767E+02  1.250021059E+02  0.00000E+00  9.000E+00
       5     1     1     2   501     0 -2.918365949E-01  1.408989064E+01  3.308771861E+00  1.523550649E+01  4.750000000E+00  0.00000E+00  9.000E+00
      -5     1     1     2     0   503  3.455880231E+00  2.896263642E+00  6.995756968E+01  7.026347207E+01  4.750000000E+00  0.00000E+00  9.000E+00
      21     1     1     2   502   511 -4.458500298E+00 -3.847365987E+00  3.498905714E-01  5.899396016E+00  1.637009721E-07  0.00000E+00  9.000E+00
#rwgt            1           9   81052.244444720855                3     1982330           0
</event>
<event>
      6   9999  3.45752E-01  1.03734E+01 -1.00000E+00  1.85532E-01
      21    -1     0     0   512   503  0.000000000E+00  0.000000000E+00  3.426250956E+02  3.426250956E+02  0.000000000E+00  0.00000E+00  9.000E+00
      21    -1     0     0   501   502  0.000000000E+00  0.000000000E+00 -8.656991692E+02  8.656991692E+02  0.000000000E+00  0.00000E+00  9.000E+00
      25     1     1     2     0     0  3.871991649E+01 -7.534780993E+01 -4.717646509E+02  4.953418665E+02  1.250006179E+02  0.00000E+00  9.000E+00
       5     1     1     2   501     0 -1.169124185E+01  2.154635763E+01 -2.038200518E+02  2.053438742E+02  4.750000000E+00  0.00000E+00  9.000E+00
      -5     1     1     2     0   503 -1.994275712E+01  4.622529597E+01 -1.738796862E+02  1.810834043E+02  4.750000000E+00  0.00000E+00  9.000E+00
      21     1     1     2   512   502 -7.085917525E+00  7.576156331E+00  3.263903153E+02  3.265551198E+02  6.607249480E-06  0.00000E+00  9.000E+00
#rwgt            1           9   1.4472880855880014E-003           3     1985937           0
</event>
<event>
      6   9999  3.45752E-01  2.40388E+01 -1.00000E+00  1.54343E-01
      21    -1     0     0   501   502  0.000000000E+00  0.000000000E+00  1.366211357E+01  1.366211357E+01  0.000000000E+00  0.00000E+00  9.000E+00
      21    -1     0     0   502   511  0.000000000E+00  0.000000000E+00 -1.386544674E+03  1.386544674E+03  0.000000000E+00  0.00000E+00  9.000E+00
      25     1     1     2     0     0 -3.526708992E+00  5.049287416E+01 -6.001622201E+02  6.151276846E+02  1.250016396E+02  0.00000E+00  9.000E+00
       5     1     1     2   501     0 -2.057885242E-01 -7.490015422E-01 -4.178528974E+00  6.373849434E+00  4.750000000E+00  0.00000E+00  9.000E+00
      -5     1     1     2     0   503 -9.876064791E+00 -6.955983435E+01 -2.533850532E+02  2.629879368E+02  4.750000000E+00  0.00000E+00  9.000E+00
      21     1     1     2   503   511  1.360856231E+01  1.981596173E+01 -5.151567581E+02  5.157173167E+02  7.629394531E-06  0.00000E+00  9.000E+00
#rwgt            1           9   4.1390947016580032E-005           3     1988619           0
</event>
<event>
      6   9999  3.45752E-01  2.61980E+01 -1.00000E+00  1.51749E-01
      21    -1     0     0   501   502  0.000000000E+00  0.000000000E+00  3.835992121E+01  3.835992121E+01  0.000000000E+00  0.00000E+00  9.000E+00
      21    -1     0     0   512   503  0.000000000E+00  0.000000000E+00 -1.649298318E+03  1.649298318E+03  0.000000000E+00  0.00000E+00  9.000E+00
      25     1     1     2     0     0  2.903302342E+01  1.446531210E+02 -1.095811304E+03  1.112742070E+03  1.250002360E+02  0.00000E+00  9.000E+00
       5     1     1     2   501     0  5.156154768E+00  8.267104888E+00  1.284047191E+01  1.680390354E+01  4.750000000E+00  0.00000E+00  9.000E+00
      -5     1     1     2     0   503 -2.390460564E+01 -1.288253097E+02 -2.847111055E+02  3.134491452E+02  4.750000000E+00  0.00000E+00  9.000E+00
      21     1     1     2   512   502 -1.028457255E+01 -2.409491623E+01 -2.432564599E+02  2.446631209E+02  0.000000000E+00  0.00000E+00  9.000E+00
#rwgt            1           9   4.2205125499645314E-003           3     1990358           0
</event>
<event>
      6   9999  3.45752E-01  1.88525E+02 -1.00000E+00  1.09789E-01
       1    -1     0     0   501     0  0.000000000E+00  0.000000000E+00  1.485018255E+02  1.485018255E+02  0.000000000E+00  0.00000E+00  9.000E+00
      21    -1     0     0   511   502  0.000000000E+00  0.000000000E+00 -3.510920272E+02  3.510920272E+02  0.000000000E+00  0.00000E+00  9.000E+00
      25     1     1     2     0     0 -1.192973788E+02  1.060554514E+02 -1.859817488E+02  2.751227450E+02  1.249947623E+02  0.00000E+00  9.000E+00
       5     1     1     2   501     0 -1.344139170E+01  1.252274229E+01 -2.853490362E+00  1.918840777E+01  4.750000000E+00  0.00000E+00  9.000E+00
      -5     1     1     2     0   502 -7.781018277E+00  7.102953636E+00 -1.212584278E+01  1.675096292E+01  4.750000000E+00  0.00000E+00  9.000E+00
       1     1     1     2   511     0  1.405197887E+02 -1.256811473E+02 -1.629119740E+00  1.885317370E+02  2.923439215E-06  0.00000E+00  9.000E+00
#rwgt            1           2   6.1473515349662727E-006           3     1992411           0
</event>
<event>
      6   9999  3.45752E-01  8.28335E+00 -1.00000E+00  1.96242E-01
      21    -1     0     0   501   502  0.000000000E+00  0.000000000E+00  7.436510527E+01  7.436510527E+01  0.000000000E+00  0.00000E+00  9.000E+00
      21    -1     0     0   512   503  0.000000000E+00  0.000000000E+00 -6.967014854E+02  6.967014854E+02  0.000000000E+00  0.00000E+00  9.000E+00
      25     1     1     2     0     0 -7.621908797E-01  3.040619195E+00 -3.946539461E+02  4.139873728E+02  1.249959255E+02  0.00000E+00  9.000E+00
       5     1     1     2   501     0 -5.906180008E+00  3.779531405E+00  6.421314527E+01  6.476927007E+01  4.750000000E+00  0.00000E+00  9.000E+00
      -5     1     1     2     0   503  4.423813125E+00  1.153297814E+00 -8.821471714E+01  8.846072031E+01  4.750000000E+00  0.00000E+00  9.000E+00
      21     1     1     2   512   502  2.244557762E+00 -7.973448415E+00 -2.036808622E+02  2.038492274E+02  2.697398305E-06  0.00000E+00  9.000E+00
#rwgt            1           9   41.106232467666224                3     1992688           0
</event>
<event>
      6   9999 -3.45752E-01  1.19912E+01 -1.00000E+00  1.79252E-01
      21    -1     0     0   502   503  0.000000000E+00  0.000000000E+00  2.433281364E+00  2.433281364E+00  0.000000000E+00  0.00000E+00  9.000E+00
      21    -1     0     0   501   511  0.000000000E+00  0.000000000E+00 -2.348689100E+03  2.348689100E+03  0.000000000E+00  0.00000E+00  9.000E+00
      25     1     1     2     0     0  1.074123194E+01  4.101536944E+00 -2.023858816E+03  2.027748024E+03  1.250013744E+02  0.00000E+00  9.000E+00
       5     1     1     2   501     0  5.837038262E-01  5.924930442E-02 -3.213451410E+01  3.248897839E+01  4.750000000E+00  0.00000E+00  9.000E+00
      -5     1     1     2     0   503  1.172500341E-01 -5.740792676E-01 -3.318096954E+01  3.352435762E+01  4.750000000E+00  0.00000E+00  9.000E+00
      21     1     1     2   502   511 -1.144218580E+01 -3.586706981E+00 -2.570815190E+02  2.573610217E+02  3.814697266E-06  0.00000E+00  9.000E+00
#rwgt            1           9  -3.0169293150623102E-003           3     1996613           0
</event>
<event>
      6   9999  3.45752E-01  2.37344E+01 -1.00000E+00  1.54735E-01
      21    -1     0     0   501   502  0.000000000E+00  0.000000000E+00  1.769681390E+03  1.769681390E+03  0.000000000E+00  0.00000E+00  9.000E+00
      21    -1     0     0   512   503  0.000000000E+00  0.000000000E+00 -4.951330180E+00  4.951330180E+00  0.000000000E+00  0.00000E+00  9.000E+00
      25     1     1     2     0     0  1.009354198E+00  1.827920279E+01  1.450758756E+03  1.456248673E+03  1.249963260E+02  0.00000E+00  9.000E+00
       5     1     1     2   501     0  2.570251200E+00  1.101117456E+01  1.537442783E+02  1.542326742E+02  4.750000000E+00  0.00000E+00  9.000E+00
      -5     1     1     2     0   503 -4.196139670E+00 -5.564028999E+00  8.121032081E+01  8.164707413E+01  4.750000000E+00  0.00000E+00  9.000E+00
      21     1     1     2   512   502  6.165342714E-01 -2.372634836E+01  7.901670540E+01  8.250429960E+01  0.000000000E+00  0.00000E+00  9.000E+00
#rwgt            1           9  0.11144833201931342                3     1998929           0
</event>
<event>
      6   9999  3.45752E-01  4.32209E+01 -1.00000E+00  1.38263E-01
      21    -1     0     0   511   502  0.000000000E+00  0.000000000E+00  2.584846101E+01  2.584846101E+01  0.000000000E+00  0.00000E+00  9.000E+00
      21    -1     0     0   502   503  0.000000000E+00  0.000000000E+00 -1.005927392E+03  1.005927392E+03  0.000000000E+00  0.00000E+00  9.000E+00
      25     1     1     2     0     0  2.488102199E+01 -3.149584152E+01 -7.863234411E+02  7.972028111E+02  1.249668547E+02  0.00000E+00  9.000E+00
       5     1     1     2   501     0 -1.877266732E+00  2.067756640E+00 -5.992485915E-01  5.542684077E+00  4.750000000E+00  0.00000E+00  9.000E+00
      -5     1     1     2     0   503 -6.105549130E+01  4.992470356E+01 -1.372159337E+02  1.583383213E+02  4.750000000E+00  0.00000E+00  9.000E+00
      21     1     1     2   511   501  3.805173604E+01 -2.049661869E+01 -5.594030724E+01  7.069203610E+01  9.536743164E-07  0.00000E+00  9.000E+00
#rwgt            1           9   6.6499177793435081E-003           3     2000122           0
</event>
<event>
      6   9999  3.45752E-01  8.31791E+00 -1.00000E+00  1.96032E-01
      21    -1     0     0   501   502  0.000000000E+00  0.000000000E+00  7.999690999E+01  7.999690999E+01  0.000000000E+00  0.00000E+00  9.000E+00
      21    -1     0     0   502   512  0.000000000E+00  0.000000000E+00 -3.553015090E+02  3.553015090E+02  0.000000000E+00  0.00000E+00  9.000E+00
      25     1     1     2     0     0  2.530656193E+01  5.447791163E+00 -9.554240541E+01  1.594487865E+02  1.250018551E+02  0.00000E+00  9.000E+00
       5     1     1     2   501     0 -1.383024809E+00  5.784672071E+00  4.522922793E+01  4.586524553E+01  4.750000000E+00  0.00000E+00  9.000E+00
      -5     1     1     2     0   503 -2.451444329E+01 -2.935572851E+00 -6.375392294E+01  6.853247922E+01  4.750000000E+00  0.00000E+00  9.000E+00
      21     1     1     2   503   512  5.909061640E-01 -8.296890382E+00 -1.612374986E+02  1.614519077E+02  1.907348633E-06  0.00000E+00  9.000E+00
#rwgt            1           9   6.5552155749185881E-003           3     2001338           0
</event>
<event>
      6   9999 -3.45752E-01  1.51130E+01 -1.00000E+00  1.70089E-01
      21    -1     0     0   501   502  0.000000000E+00  0.000000000E+00  3.275604739E+03  3.275604739E+03  0.000000000E+00  0.00000E+00  9.000E+00
      21    -1     0     0   511   503  0.000000000E+00  0.000000000E+00 -1.803087391E+01  1.803087391E+01  0.000000000E+00  0.00000E+00  9.000E+00
      25     1     1     2     0     0  8.350646770E-01  1.491086004E+01  2.198080832E+02  2.533040135E+02  1.249971949E+02  0.00000E+00  9.000E+00
       5     1     1     2   501     0  8.882920389E+00 -6.130275538E+00  2.834823301E+03  2.834847827E+03  4.750000000E+00  0.00000E+00  9.000E+00
      -5     1     1     2     0   503  2.647964877E+00 -9.225880775E-02  1.575038388E+02  1.575977219E+02  4.750000000E+00  0.00000E+00  9.000E+00
      21     1     1     2   511   502 -1.236594994E+01 -8.688325693E+00  4.543864168E+01  4.788605098E+01  9.536743164E-07  0.00000E+00  9.000E+00
#rwgt            1           9  -2.6485552717732458E-005           3     2005036           0
</event>
<event>
      6   9999  3.45752E-01  5.28595E+00 -1.00000E+00  2.22021E-01
      21    -1     0     0   512   502  0.000000000E+00  0.000000000E+00  1.838435796E+01  1.838435796E+01  0.000000000E+00  0.00000E+00  9.000E+00
      21    -1     0     0   502   503  0.000000000E+00  0.000000000E+00 -2.520247099E+03  2.520247099E+03  0.000000000E+00  0.00000E+00  9.000E+00
      25     1     1     2     0     0  2.189888415E+01 -2.904032473E+01 -2.081116176E+03  2.085183779E+03  1.249958155E+02  0.00000E+00  9.000E+00
       5     1     1     2   501     0  2.001597794E+00 -3.566734279E+00  1.422476959E+01  1.554459896E+01  4.750000000E+00  0.00000E+00  9.000E+00
      -5     1     1     2     0   503 -2.108005063E+01  3.707768005E+01 -4.160442367E+02  4.182517092E+02  4.750000000E+00  0.00000E+00  9.000E+00
      21     1     1     2   512   501 -2.820431314E+00 -4.470621039E+00 -1.892709806E+01  1.965136958E+01  3.371747881E-07  0.00000E+00  9.000E+00
#rwgt            1           9  0.13608713211546322                3     2007872           0
</event>
<event>
      6   9999  3.45752E-01  1.98408E+01 -1.00000E+00  1.60476E-01
      21    -1     0     0   511   502  0.000000000E+00  0.000000000E+00  1.145911444E+01  1.145911444E+01  0.000000000E+00  0.00000E+00  9.000E+00
      21    -1     0     0   502   503  0.000000000E+00  0.000000000E+00 -6.544479103E+02  6.544479103E+02  0.000000000E+00  0.00000E+00  9.000E+00
      25     1     1     2     0     0  9.710839454E+00 -4.968451842E+00 -5.123517236E+02  5.274943107E+02  1.250078927E+02  0.00000E+00  9.000E+00
       5     1     1     2   501     0  2.063541042E+00  1.109526643E+00 -2.024098641E+00  5.669984683E+00  4.750000000E+00  0.00000E+00  9.000E+00
      -5     1     1     2     0   503  7.457625757E+00  8.736111735E+00 -6.218180696E+01  6.341195035E+01  4.750000000E+00  0.00000E+00  9.000E+00
      21     1     1     2   511   501 -1.923200625E+01 -4.877186536E+00 -6.643116668E+01  6.933077902E+01  1.651812370E-06  0.00000E+00  9.000E+00
#rwgt            1           9   9.1027576707972783E-003           3     2013957           0
</event>
<event>
      6   9999  3.45752E-01  7.31593E+00 -1.00000E+00  2.02725E-01
      21    -1     0     0   501   502  0.000000000E+00  0.000000000E+00  6.214010082E+01  6.214010082E+01  0.000000000E+00  0.00000E+00  9.000E+00
      21    -1     0     0   512   503  0.000000000E+00  0.000000000E+00 -2.540274157E+03  2.540274157E+03  0.000000000E+00  0.00000E+00  9.000E+00
      25     1     1     2     0     0  3.625913809E+01  1.768692628E+02 -7.032924653E+02  7.367790444E+02  1.250024292E+02  0.00000E+00  9.000E+00
       5     1     1     2   501     0 -5.645031004E+00  1.853370318E+00  3.466078678E+01  3.548568721E+01  4.750000000E+00  0.00000E+00  9.000E+00
      -5     1     1     2     0   503 -3.093233300E+01 -1.714136232E+02 -7.258281861E+02  7.464506398E+02  4.750000000E+00  0.00000E+00  9.000E+00
      21     1     1     2   512   502  3.182259132E-01 -7.309009876E+00 -1.083674192E+03  1.083698887E+03  0.000000000E+00  0.00000E+00  9.000E+00
#rwgt            1           9   4.6366447365286041E-005           3     2016699           0
</event>
<event>
      6   9999  3.45752E-01  1.55349E+01 -1.00000E+00  1.69063E-01
      21    -1     0     0   501   502  0.000000000E+00  0.000000000E+00  9.458380340E+00  9.458380340E+00  0.000000000E+00  0.00000E+00  9.000E+00
       2    -1     0     0   502     0  0.000000000E+00  0.000000000E+00 -1.881335462E+03  1.881335462E+03  0.000000000E+00  0.00000E+00  9.000E+00
      25     1     1     2     0     0  1.406695462E+01  4.821923075E-01 -8.067721761E+02  8.165195392E+02  1.249988086E+02  0.00000E+00  9.000E+00
       5     1     1     2   501     0  2.025852329E+00 -8.707471519E-02  6.884906248E-01  5.210391444E+00  4.750000000E+00  0.00000E+00  9.000E+00
      -5     1     1     2     0   503 -2.856575478E+00  7.737161120E+00 -1.277377019E+01  1.592970152E+01  4.750000000E+00  0.00000E+00  9.000E+00
       2     1     1     2   503     0 -1.323623147E+01 -8.132278713E+00 -1.053019626E+03  1.053134210E+03  1.525878906E-05  0.00000E+00  9.000E+00
#rwgt            1           9   2.2247744271235857E-002           3     2022538           0
</event>
<event>
      6   9999  3.45752E-01  3.19249E+01 -1.00000E+00  1.46112E-01
      21    -1     0     0   501   511  0.000000000E+00  0.000000000E+00  3.910550218E+01  3.910550218E+01  0.000000000E+00  0.00000E+00  9.000E+00
      21    -1     0     0   502   503  0.000000000E+00  0.000000000E+00 -1.086600183E+03  1.086600183E+03  0.000000000E+00  0.00000E+00  9.000E+00
      25     1     1     2     0     0 -2.236793545E+01 -1.270197904E+01 -1.033631320E+03  1.041476948E+03  1.249754484E+02  0.00000E+00  9.000E+00
       5     1     1     2   501     0 -7.904622419E+00 -3.595892111E+00  1.893717739E+01  2.136802946E+01  4.750000000E+00  0.00000E+00  9.000E+00
      -5     1     1     2     0   503  7.820644744E+00 -6.398234038E+00 -2.854808280E+01  3.065379935E+01  4.750000000E+00  0.00000E+00  9.000E+00
      21     1     1     2   502   511  2.245191312E+01  2.269610519E+01 -4.252455827E+00  3.220690880E+01  7.839767002E-07  0.00000E+00  9.000E+00
#rwgt            1           9   2.3809128879174258E-006           3     2024726           0
</event>
<event>
      6   9999  3.45752E-01  7.77015E+00 -1.00000E+00  1.99526E-01
      21    -1     0     0   501   502  0.000000000E+00  0.000000000E+00  2.882440349E+01  2.882440349E+01  0.000000000E+00  0.00000E+00  9.000E+00
       1    -1     0     0   502     0  0.000000000E+00  0.000000000E+00 -1.902786932E+03  1.902786932E+03  0.000000000E+00  0.00000E+00  9.000E+00
      25     1     1     2     0     0  4.866048070E+01 -5.504439231E+01 -2.697459057E+02  3.062428608E+02  1.249964345E+02  0.00000E+00  9.000E+00
       5     1     1     2   501     0 -1.085867173E-01 -3.085285196E-01  8.107354617E+00  9.402057211E+00  4.750000000E+00  0.00000E+00  9.000E+00
      -5     1     1     2     0   503 -4.499545851E+01  6.226139564E+01 -8.199333606E+02  8.235377047E+02  4.750000000E+00  0.00000E+00  9.000E+00
       1     1     1     2   503     0 -3.556435471E+00 -6.908474813E+00 -7.923906173E+02  7.924287133E+02  0.000000000E+00  0.00000E+00  9.000E+00
#rwgt            1           9   7.2592216596741423E-004           3     2026994           0
</event>
<event>
      6   9999  3.45752E-01  1.33229E+01 -1.00000E+00  1.74958E-01
      21    -1     0     0   511   502  0.000000000E+00  0.000000000E+00  6.260774188E+01  6.260774188E+01  0.000000000E+00  0.00000E+00  9.000E+00
      21    -1     0     0   502   503  0.000000000E+00  0.000000000E+00 -2.544652219E+03  2.544652219E+03  0.000000000E+00  0.00000E+00  9.000E+00
      25     1     1     2     0     0  3.412128271E+01 -4.064394657E+01 -1.388897446E+03  1.395520555E+03  1.250012459E+02  0.00000E+00  9.000E+00
       5     1     1     2   501     0 -6.844067737E+00  2.916606876E+00  2.781368645E-02  8.826728299E+00  4.750000000E+00  0.00000E+00  9.000E+00
      -5     1     1     2     0   503 -3.970257855E+01  4.253465522E+01 -1.146481245E+03  1.147966593E+03  4.750000000E+00  0.00000E+00  9.000E+00
      21     1     1     2   511   501  1.242536357E+01 -4.807315523E+00  5.330639993E+01  5.494608462E+01  3.015782986E-06  0.00000E+00  9.000E+00
#rwgt            1           9   1.7730260115887174E-004           3     2030939           0
</event>
<event>
      6   9999  3.45752E-01  1.18359E+01 -1.00000E+00  1.79799E-01
      21    -1     0     0   501   502  0.000000000E+00  0.000000000E+00  1.008805317E+02  1.008805317E+02  0.000000000E+00  0.00000E+00  9.000E+00
      21    -1     0     0   502   512  0.000000000E+00  0.000000000E+00 -1.396327840E+03  1.396327840E+03  0.000000000E+00  0.00000E+00  9.000E+00
      25     1     1     2     0     0 -2.497354790E+01 -2.881059560E+00 -1.253024854E+03  1.259496113E+03  1.250087831E+02  0.00000E+00  9.000E+00
       5     1     1     2   501     0  1.829266692E+01 -3.686495937E+00  9.572144872E+01  9.763897869E+01  4.750000000E+00  0.00000E+00  9.000E+00
      -5     1     1     2     0   503  5.698805681E+00 -5.227547538E+00 -3.170646612E+01  3.297978371E+01  4.750000000E+00  0.00000E+00  9.000E+00
      21     1     1     2   503   512  9.820752974E-01  1.179510303E+01 -1.064374367E+02  1.070934959E+02  0.000000000E+00  0.00000E+00  9.000E+00
#rwgt            1           9   3.0895160869011222E-002           3     2033866           0
</event>
<event>
      6   9999 -3.45752E-01  1.28413E+02 -1.00000E+00  1.15994E-01
       1    -1     0     0   501     0  0.000000000E+00  0.000000000E+00  1.191850643E+03  1.191850643E+03  0.000000000E+00  0.00000E+00  9.000E+00
      21    -1     0     0   502   503  0.000000000E+00  0.000000000E+00 -1.491469026E+03  1.491469026E+03  0.000000000E+00  0.00000E+00  9.000E+00
      25     1     1     2     0     0 -2.158527595E+02 -1.708394098E+02 -5.190151984E+02  6.006494235E+02  1.249977439E+02  0.00000E+00  9.000E+00
       5     1     1     2   501     0  6.269412330E+01  5.119706333E+01 -3.319106203E+02  3.416707696E+02  4.750000000E+00  0.00000E+00  9.000E+00
      -5     1     1     2     0   503  2.342109418E+02  2.004056717E+01 -5.677975657E+02  6.145510782E+02  4.750000000E+00  0.00000E+00  9.000E+00
       1     1     1     2   502     0 -8.105230557E+01  9.960177929E+01  1.119105001E+03  1.126448398E+03  0.000000000E+00  0.00000E+00  9.000E+00
#rwgt            1           9  -2.5812343422097142E-005           3     2037629           0
</event>
<event>
      6   9999  3.45752E-01  2.14719E+01 -1.00000E+00  1.57891E-01
      21    -1     0     0   502   503  0.000000000E+00  0.000000000E+00  1.693530655E+01  1.693530655E+01  0.000000000E+00  0.00000E+00  9.000E+00
      21    -1     0     0   501   511  0.000000000E+00  0.000000000E+00 -1.747237553E+03  1.747237553E+03  0.000000000E+00  0.00000E+00  9.000E+00
      25     1     1     2     0     0  2.460095492E+01 -9.320400390E+00 -2.349712529E+02  2.674482932E+02  1.250000920E+02  0.00000E+00  9.000E+00
       5     1     1     2   501     0 -1.411545996E+01 -1.069543872E+01 -8.094630559E+02  8.096706985E+02  4.750000000E+00  0.00000E+00  9.000E+00
      -5     1     1     2     0   503 -6.086846551E-01  9.503643209E-01 -1.371522952E+01  1.455828665E+01  4.750000000E+00  0.00000E+00  9.000E+00
      21     1     1     2   502   511 -9.876810308E+00  1.906547479E+01 -6.721527079E+02  6.724955810E+02  1.078959322E-05  0.00000E+00  9.000E+00
#rwgt            1           9   3.4941970217320828E-003           3     2038182           0
</event>
<event>
      6   9999 -3.45752E-01  7.11308E+00 -1.00000E+00  2.04256E-01
      21    -1     0     0   501   512  0.000000000E+00  0.000000000E+00  1.409342849E+02  1.409342849E+02  0.000000000E+00  0.00000E+00  9.000E+00
      21    -1     0     0   502   503  0.000000000E+00  0.000000000E+00 -7.298330360E+02  7.298330360E+02  0.000000000E+00  0.00000E+00  9.000E+00
      25     1     1     2     0     0 -1.344296140E+00  1.005936228E+01 -5.610561998E+02  5.749014388E+02  1.249984283E+02  0.00000E+00  9.000E+00
       5     1     1     2   501     0 -2.322574422E+00  2.665466400E+00 -7.845431427E+01  7.867744906E+01  4.750000000E+00  0.00000E+00  9.000E+00
      -5     1     1     2     0   503 -1.117197585E-01 -6.698373260E+00 -8.299105697E+01  8.339639514E+01  4.750000000E+00  0.00000E+00  9.000E+00
      21     1     1     2   502   512  3.778590321E+00 -6.026455416E+00  1.336028199E+02  1.337920379E+02  1.907348633E-06  0.00000E+00  9.000E+00
#rwgt            1           9 -0.47230878918338137                3     2040347           0
</event>
<event>
      6   9999  3.45752E-01  1.20232E+01 -1.00000E+00  1.79141E-01
      21    -1     0     0   501   502  0.000000000E+00  0.000000000E+00  4.015399015E+01  4.015399015E+01  0.000000000E+00  0.00000E+00  9.000E+00
      21    -1     0     0   511   503  0.000000000E+00  0.000000000E+00 -1.997257430E+03  1.997257430E+03  0.000000000E+00  0.00000E+00  9.000E+00
      25     1     1     2     0     0  7.943921187E+01  9.298145655E+00 -1.621522588E+02  2.198076033E+02  1.249999341E+02  0.00000E+00  9.000E+00
       5     1     1     2   501     0 -9.484940464E-01  2.780315112E+00  9.686659470E+00  1.118139816E+01  4.750000000E+00  0.00000E+00  9.000E+00
      -5     1     1     2     0   503 -6.692366544E+01 -8.798146883E+00 -1.444656538E+03  1.446240388E+03  4.750000000E+00  0.00000E+00  9.000E+00
      21     1     1     2   511   502 -1.156705238E+01 -3.280313884E+00 -3.599813024E+02  3.601820307E+02  5.394796609E-06  0.00000E+00  9.000E+00
#rwgt            1           9  0.17759216628513921                3     2043537           0
</event>
<event>
      6   9999  3.45752E-01  1.47317E+01 -1.00000E+00  1.71054E-01
      21    -1     0     0   501   502  0.000000000E+00  0.000000000E+00  2.498888115E+01  2.498888115E+01  0.000000000E+00  0.00000E+00  9.000E+00
       2    -1     0     0   502     0  0.000000000E+00  0.000000000E+00 -3.397265132E+03  3.397265132E+03  0.000000000E+00  0.00000E+00  9.000E+00
      25     1     1     2     0     0  5.738568776E+01 -3.416259833E+01 -4.408420888E+02  4.630026113E+02  1.247776847E+02  0.00000E+00  9.000E+00
       5     1     1     2   501     0 -8.786307757E-01 -1.470817612E+00  1.225100843E+01  1.325084918E+01  4.750000000E+00  0.00000E+00  9.000E+00
      -5     1     1     2     0   503 -4.292360022E+01  2.993142153E+01 -6.072750351E+02  6.095439740E+02  4.750000000E+00  0.00000E+00  9.000E+00
       2     1     1     2   503     0 -1.358345677E+01  5.701994409E+00 -2.336410135E+03  2.336456579E+03  3.051757812E-05  0.00000E+00  9.000E+00
#rwgt            1           9   8.6681411060011830E-004           3     2046954           0
</event>
<event>
      6   9999  3.45752E-01  7.18427E+00 -1.00000E+00  2.03711E-01
      21    -1     0     0   501   502  0.000000000E+00  0.000000000E+00  1.479582427E+01  1.479582427E+01  0.000000000E+00  0.00000E+00  9.000E+00
      21    -1     0     0   511   503  0.000000000E+00  0.000000000E+00 -1.138446222E+03  1.138446222E+03  0.000000000E+00  0.00000E+00  9.000E+00
      25     1     1     2     0     0  1.318301315E+01  4.223806128E+01 -5.579596415E+02  5.734998939E+02  1.250012843E+02  0.00000E+00  9.000E+00
       5     1     1     2   501     0 -1.204924902E+00  2.445096960E-01  4.378600041E+00  6.576189423E+00  4.750000000E+00  0.00000E+00  9.000E+00
      -5     1     1     2     0   503 -5.107848506E+00 -4.038173554E+01 -2.776056461E+02  2.806140266E+02  4.750000000E+00  0.00000E+00  9.000E+00
      21     1     1     2   511   502 -6.870239744E+00 -2.100835438E+00 -2.924637099E+02  2.925519361E+02  6.607249480E-06  0.00000E+00  9.000E+00
#rwgt            1           9   2.6251985371543566E-005           3     2049683           0
</event>
<event>
      6   9999  3.45752E-01  1.52948E+01 -1.00000E+00  1.69642E-01
      21    -1     0     0   501   502  0.000000000E+00  0.000000000E+00  1.238571069E+01  1.238571069E+01  0.000000000E+00  0.00000E+00  9.000E+00
      21    -1     0     0   512   503  0.000000000E+00  0.000000000E+00 -1.059387861E+03  1.059387861E+03  0.000000000E+00  0.00000E+00  9.000E+00
      25     1     1     2     0     0 -1.466340307E+00 -2.135089408E+01 -6.089943981E+02  6.220587296E+02  1.249995013E+02  0.00000E+00  9.000E+00
       5     1     1     2   501     0  8.916462801E-01  1.270341089E+00  3.352954166E+00  6.017773775E+00  4.750000000E+00  0.00000E+00  9.000E+00
      -5     1     1     2     0   503  1.536066657E+01  2.399286487E+01 -2.345458494E+02  2.363174256E+02  4.750000000E+00  0.00000E+00  9.000E+00
      21     1     1     2   512   502 -1.478597254E+01 -3.912311880E+00 -2.068148571E+02  2.073796429E+02  2.697398305E-06  0.00000E+00  9.000E+00
#rwgt            1           9   1.3983196326583557E-003           3     2053464           0
</event>
<event>
      6   9999 -3.45752E-01  9.68616E+01 -1.00000E+00  1.21027E-01
      21    -1     0     0   501   511  0.000000000E+00  0.000000000E+00  8.870723147E+01  8.870723147E+01  0.000000000E+00  0.00000E+00  9.000E+00
      21    -1     0     0   502   503  0.000000000E+00  0.000000000E+00 -9.931034556E+02  9.931034556E+02  0.000000000E+00  0.00000E+00  9.000E+00
      25     1     1     2     0     0  2.395875152E+01 -7.077526839E+01 -4.188548200E+02  4.434485802E+02  1.249964907E+02  0.00000E+00  9.000E+00
       5     1     1     2   501     0 -3.174739535E+01 -2.584367887E+01 -1.360165062E+02  1.421226418E+02  4.750000000E+00  0.00000E+00  9.000E+00
      -5     1     1     2     0   503  3.931987025E-01  4.004221431E-02 -3.908870640E+02  3.909161234E+02  4.750000000E+00  0.00000E+00  9.000E+00
      21     1     1     2   502   511  7.395445126E+00  9.657890504E+01  4.136216611E+01  1.053233416E+02  3.600041597E-06  0.00000E+00  9.000E+00
#rwgt            1           9 -0.54215514767117634                3     2055253           0
</event>
<event>
      6   9999  3.45752E-01  9.29084E+00 -1.00000E+00  1.90623E-01
      21    -1     0     0   501   502  0.000000000E+00  0.000000000E+00  7.439063800E+01  7.439063800E+01  0.000000000E+00  0.00000E+00  9.000E+00
      21    -1     0     0   502   512  0.000000000E+00  0.000000000E+00 -2.410448885E+03  2.410448885E+03  0.000000000E+00  0.00000E+00  9.000E+00
      25     1     1     2     0     0 -8.061924600E+00 -2.343218670E+01 -1.005605597E+03  1.013647779E+03  1.250005585E+02  0.00000E+00  9.000E+00
       5     1     1     2   501     0 -8.353999470E+00  8.107080867E+00  6.931333489E+01  7.044441043E+01  4.750000000E+00  0.00000E+00  9.000E+00
      -5     1     1     2     0   503  2.542290225E+01  1.304607533E+01 -4.477547440E+02  4.486907591E+02  4.750000000E+00  0.00000E+00  9.000E+00
      21     1     1     2   503   512 -9.006978183E+00  2.279030505E+00 -9.520112406E+02  9.520565750E+02  1.078959322E-05  0.00000E+00  9.000E+00
#rwgt            1           9  0.44459060503135833                3     2055763           0
</event>
<event>
      6   9999  3.45752E-01  3.33352E+00 -1.00000E+00  2.65461E-01
      21    -1     0     0   511   502  0.000000000E+00  0.000000000E+00  8.439751040E+00  8.439751040E+00  0.000000000E+00  0.00000E+00  9.000E+00
      21    -1     0     0   502   503  0.000000000E+00  0.000000000E+00 -7.238977026E+02  7.238977026E+02  0.000000000E+00  0.00000E+00  9.000E+00
      25     1     1     2     0     0 -5.314678674E+00  3.881115197E+00 -6.351114775E+02  6.473282575E+02  1.249959010E+02  0.00000E+00  9.000E+00
       5     1     1     2   501     0 -1.364740393E-01 -6.103716256E-01 -1.508347598E+00  5.022827009E+00  4.750000000E+00  0.00000E+00  9.000E+00
      -5     1     1     2     0   503  5.724280075E+00 -6.593055038E+00 -6.479859785E+01  6.555651410E+01  4.750000000E+00  0.00000E+00  9.000E+00
      21     1     1     2   511   501 -2.731273613E-01  3.322311467E+00 -1.403952859E+01  1.442985499E+01  0.000000000E+00  0.00000E+00  9.000E+00
#rwgt            1           9   1.0582725814474139E-003           3     2060526           0
</event>
<event>
      6   9999  3.45752E-01  2.15775E+01 -1.00000E+00  1.57734E-01
      21    -1     0     0   512   502  0.000000000E+00  0.000000000E+00  1.254815916E+01  1.254815916E+01  0.000000000E+00  0.00000E+00  9.000E+00
      21    -1     0     0   502   503  0.000000000E+00  0.000000000E+00 -8.655365451E+02  8.655365451E+02  0.000000000E+00  0.00000E+00  9.000E+00
      25     1     1     2     0     0 -5.121840534E+01  1.863814401E+01 -7.060898170E+02  7.191377293E+02  1.250021548E+02  0.00000E+00  9.000E+00
       5     1     1     2   501     0  1.215494587E+01 -2.615438304E+00 -1.896339321E+01  2.316799535E+01  4.750000000E+00  0.00000E+00  9.000E+00
      -5     1     1     2     0   503  1.772052763E+01 -1.284984970E+01 -8.240091474E+01  8.539091865E+01  4.750000000E+00  0.00000E+00  9.000E+00
      21     1     1     2   512   501  2.134293185E+01 -3.172856014E+00 -4.553426101E+01  5.038806089E+01  1.784161275E-06  0.00000E+00  9.000E+00
#rwgt            1           9   1.2472682811722887E-004           3     2065386           0
</event>
<event>
      6   9999  3.45752E-01  7.07521E+00 -1.00000E+00  2.04549E-01
      21    -1     0     0   501   502  0.000000000E+00  0.000000000E+00  1.460173221E+02  1.460173221E+02  0.000000000E+00  0.00000E+00  9.000E+00
      21    -1     0     0   502   511  0.000000000E+00  0.000000000E+00 -1.824582036E+02  1.824582036E+02  0.000000000E+00  0.00000E+00  9.000E+00
      25     1     1     2     0     0 -2.783250340E-01 -8.809473780E+00 -1.416399004E+02  1.891157245E+02  1.250008463E+02  0.00000E+00  9.000E+00
       5     1     1     2   501     0  1.644981204E+00  3.386573716E+00  1.190116553E+02  1.191658988E+02  4.750000000E+00  0.00000E+00  9.000E+00
      -5     1     1     2     0   503 -3.205396628E+00 -1.409206509E+00 -1.657341495E+00  6.129413623E+00  4.750000000E+00  0.00000E+00  9.000E+00
      21     1     1     2   503   511  1.838740459E+00  6.832106574E+00 -1.215529490E+01  1.406448864E+01  1.685873940E-07  0.00000E+00  9.000E+00
#rwgt            1           9   5.1863843929262410E-002           3     2066626           0
</event>
<event>
      6   9999  3.45752E-01  5.52757E+01 -1.00000E+00  1.32497E-01
      21    -1     0     0   501   502  0.000000000E+00  0.000000000E+00  5.307887067E+01  5.307887067E+01  0.000000000E+00  0.00000E+00  9.000E+00
      21    -1     0     0   502   512  0.000000000E+00  0.000000000E+00 -1.687358737E+03  1.687358737E+03  0.000000000E+00  0.00000E+00  9.000E+00
      25     1     1     2     0     0 -1.060896393E+02 -1.026533454E+02 -5.888684643E+02  6.198220220E+02  1.249821983E+02  0.00000E+00  9.000E+00
       5     1     1     2   501     0 -4.949857033E+00 -1.270327835E+01  2.999496639E+01  3.328865985E+01  4.750000000E+00  0.00000E+00  9.000E+00
      -5     1     1     2     0   503  7.085978081E+01  7.739625321E+01 -7.327532330E+02  7.402439811E+02  4.750000000E+00  0.00000E+00  9.000E+00
      21     1     1     2   503   512  4.017971552E+01  3.796037058E+01 -3.426531354E+02  3.470829447E+02  0.000000000E+00  0.00000E+00  9.000E+00
#rwgt            1           9   4.6590387625059724E-004           3     2070631           0
</event>
<event>
      6   9999  3.45752E-01  1.59052E+01 -1.00000E+00  1.68195E-01
      21    -1     0     0   501   511  0.000000000E+00  0.000000000E+00  3.382015047E+01  3.382015047E+01  0.000000000E+00  0.00000E+00  9.000E+00
      21    -1     0     0   502   503  0.000000000E+00  0.000000000E+00 -1.195668711E+03  1.195668711E+03  0.000000000E+00  0.00000E+00  9.000E+00
      25     1     1     2     0     0  1.047897254E+01 -4.560939740E+01 -9.552734341E+02  9.645537240E+02  1.250061066E+02  0.00000E+00  9.000E+00
       5     1     1     2   501     0  7.153000034E+00 -5.516901603E+00  2.446559489E+01  2.650904461E+01  4.750000000E+00  0.00000E+00  9.000E+00
      -5     1     1     2     0   503 -1.942655013E+01  3.532266979E+01 -1.924882744E+02  1.967215803E+02  4.750000000E+00  0.00000E+00  9.000E+00
      21     1     1     2   502   511  1.794577554E+00  1.580362921E+01 -3.855244692E+01  4.170451256E+01  4.768371582E-07  0.00000E+00  9.000E+00
#rwgt            1           9   6.6242567570184570E-005           3     2071724           0
</event>
<event>
      6   9999  3.45752E-01  2.46940E+00 -1.00000E+00  3.01066E-01
      21    -1     0     0   501   502  0.000000000E+00  0.000000000E+00  2.240317924E+02  2.240317924E+02  0.000000000E+00  0.00000E+00  9.000E+00
      -1    -1     0     0     0   503  0.000000000E+00  0.000000000E+00 -6.118732976E+02  6.118732976E+02  0.000000000E+00  0.00000E+00  9.000E+00
      25     1     1     2     0     0  1.942528743E-01 -9.922187107E-01  1.548705034E+02  1.990210602E+02  1.249939492E+02  0.00000E+00  9.000E+00
       5     1     1     2   501     0  8.682840264E-01  2.341199826E-01  4.557968066E+01  4.583534137E+01  4.750000000E+00  0.00000E+00  9.000E+00
      -5     1     1     2     0   503  6.664550943E-02  2.954207178E+00 -4.310303253E+00  7.062081549E+00  4.750000000E+00  0.00000E+00  9.000E+00
      -1     1     1     2     0   502 -1.129182410E+00 -2.196108450E+00 -5.839813860E+02  5.839866070E+02  7.629394531E-06  0.00000E+00  9.000E+00
#rwgt            1           9   4.0247960986107230E-002           3     2074117           0
</event>
<event>
      6   9999  3.45752E-01  7.71669E+00 -1.00000E+00  1.99887E-01
      21    -1     0     0   501   511  0.000000000E+00  0.000000000E+00  2.097124005E+02  2.097124005E+02  0.000000000E+00  0.00000E+00  9.000E+00
      21    -1     0     0   502   503  0.000000000E+00  0.000000000E+00 -7.106394822E+02  7.106394822E+02  0.000000000E+00  0.00000E+00  9.000E+00
      25     1     1     2     0     0  1.027094807E+01  8.684469449E+00 -6.480052616E+02  6.600890189E+02  1.250031259E+02  0.00000E+00  9.000E+00
       5     1     1     2   501     0 -1.651591268E+01 -6.831985605E+00 -2.296436582E+01  2.948518266E+01  4.750000000E+00  0.00000E+00  9.000E+00
      -5     1     1     2     0   503 -2.686106065E-01  2.285218455E+00 -3.006330688E+01  3.052309446E+01  4.750000000E+00  0.00000E+00  9.000E+00
      21     1     1     2   502   511  6.513575222E+00 -4.137702299E+00  2.001058526E+02  2.002545867E+02  3.814697266E-06  0.00000E+00  9.000E+00
#rwgt            1           9  0.37424999586069652                3     2080019           0
</event>
<event>
      6   9999  3.45752E-01  1.74386E+01 -1.00000E+00  1.64890E-01
      21    -1     0     0   502   503  0.000000000E+00  0.000000000E+00  1.777235701E+02  1.777235701E+02  0.000000000E+00  0.00000E+00  9.000E+00
      21    -1     0     0   512   502  0.000000000E+00  0.000000000E+00 -3.469803519E+01  3.469803519E+01  0.000000000E+00  0.00000E+00  9.000E+00
      25     1     1     2     0     0 -1.114359594E+00  1.392973830E+01  1.274227108E+02  1.790430102E+02  1.249982915E+02  0.00000E+00  9.000E+00
       5     1     1     2   501     0 -6.552182947E-02  7.171741560E-01  7.264064043E+00  8.709061850E+00  4.750000000E+00  0.00000E+00  9.000E+00
      -5     1     1     2     0   503 -5.577031720E-01  2.704923949E+00  3.700937269E+00  6.624732679E+00  4.750000000E+00  0.00000E+00  9.000E+00
      21     1     1     2   512   501  1.737584595E+00 -1.735183641E+01  4.637822785E+00  1.804480056E+01  1.332800375E-07  0.00000E+00  9.000E+00
#rwgt            1           9   1.1284647491131669E-004           3     2082644           0
</event>
<event>
      6   9999  3.45752E-01  8.67952E+00 -1.00000E+00  1.93914E-01
      21    -1     0     0   501   502  0.000000000E+00  0.000000000E+00  4.295709230E+00  4.295709230E+00  0.000000000E+00  0.00000E+00  9.000E+00
      21    -1     0     0   511   503  0.000000000E+00  0.000000000E+00 -1.945075977E+03  1.945075977E+03  0.000000000E+00  0.00000E+00  9.000E+00
      25     1     1     2     0     0  2.275449060E+01 -3.057192703E+01 -1.315303434E+03  1.321778971E+03  1.249964556E+02  0.00000E+00  9.000E+00
       5     1     1     2   501     0 -2.583601360E+01  1.522218798E+01 -3.050319103E+02  3.065391385E+02  4.750000000E+00  0.00000E+00  9.000E+00
      -5     1     1     2     0   503 -3.136115069E+00  9.293744219E+00 -1.564432389E+02  1.568223785E+02  4.750000000E+00  0.00000E+00  9.000E+00
      21     1     1     2   511   502  6.217638068E+00  6.055994825E+00 -1.640016838E+02  1.642311980E+02  3.303624740E-06  0.00000E+00  9.000E+00
#rwgt            1           9   3.3076351625471387E-002           3     2083799           0
</event>
<event>
      6   9999 -3.45752E-01  8.99898E+00 -1.00000E+00  1.92151E-01
      21    -1     0     0   501   502  0.000000000E+00  0.000000000E+00  1.078633221E+01  1.078633221E+01  0.000000000E+00  0.00000E+00  9.000E+00
      21    -1     0     0   502   512  0.000000000E+00  0.000000000E+00 -1.789858506E+03  1.789858506E+03  0.000000000E+00  0.00000E+00  9.000E+00
      25     1     1     2     0     0  1.906332799E+01  6.509515356E+01 -1.148106427E+03  1.156881258E+03  1.250003474E+02  0.00000E+00  9.000E+00
       5     1     1     2   501     0 -1.859517985E+00  2.029068469E+00  2.817229662E+00  6.170430209E+00  4.750000000E+00  0.00000E+00  9.000E+00
      -5     1     1     2     0   503 -1.628961091E+01 -5.817180170E+01 -5.492133111E+02  5.525460465E+02  4.750000000E+00  0.00000E+00  9.000E+00
      21     1     1     2   503   512 -9.141990968E-01 -8.952420334E+00 -8.456966470E+01  8.504710328E+01  9.536743164E-07  0.00000E+00  9.000E+00
#rwgt            1           9  -5.8561625305049894E-002           3     2086420           0
</event>
<event>
      6   9999  3.45752E-01  6.66483E+00 -1.00000E+00  2.07892E-01
      21    -1     0     0   501   511  0.000000000E+00  0.000000000E+00  1.235361393E+01  1.235361393E+01  0.000000000E+00  0.00000E+00  9.000E+00
      21    -1     0     0   502   503  0.000000000E+00  0.000000000E+00 -7.925456842E+02  7.925456842E+02  0.000000000E+00  0.00000E+00  9.000E+00
      25     1     1     2     0     0  1.899996158E+01 -5.734241221E+00 -5.677327264E+02  5.816692452E+02  1.249991285E+02  0.00000E+00  9.000E+00
       5     1     1     2   501     0  1.211670009E+00 -1.734192535E+00  2.060213439E-01  5.203893999E+00  4.750000000E+00  0.00000E+00  9.000E+00
      -5     1     1     2     0   503 -1.354700932E+01  7.520429464E+00 -2.103458663E+02  2.109692496E+02  4.750000000E+00  0.00000E+00  9.000E+00
      21     1     1     2   502   511 -6.664622271E+00 -5.199570746E-02 -2.319498919E+00  7.056909295E+00  1.861154437E-07  0.00000E+00  9.000E+00
#rwgt            1           9   1.7765410809469204                3     2089952           0
</event>
<event>
      6   9999  3.45752E-01  7.78890E+00 -1.00000E+00  1.99400E-01
      21    -1     0     0   501   502  0.000000000E+00  0.000000000E+00  5.876292570E+02  5.876292570E+02  0.000000000E+00  0.00000E+00  9.000E+00
      21    -1     0     0   512   503  0.000000000E+00  0.000000000E+00 -1.067986974E+01  1.067986974E+01  0.000000000E+00  0.00000E+00  9.000E+00
      25     1     1     2     0     0 -3.432723111E+00  3.191753068E+00  4.290560516E+02  4.469143970E+02  1.249856469E+02  0.00000E+00  9.000E+00
       5     1     1     2   501     0  3.250001007E-01 -1.207903870E+00  9.164853967E+01  9.178007398E+01  4.750000000E+00  0.00000E+00  9.000E+00
      -5     1     1     2     0   503  5.802238663E+00 -9.291830736E+00  3.563419130E+01  3.758140740E+01  4.750000000E+00  0.00000E+00  9.000E+00
      21     1     1     2   512   502 -2.694515653E+00  7.307981538E+00  2.061060461E+01  2.203324831E+01  2.384185791E-07  0.00000E+00  9.000E+00
#rwgt            1           9   2.2578527398260537E-002           3     2093093           0
</event>
<event>
      6   9999  3.45752E-01  4.78516E+01 -1.00000E+00  1.35816E-01
      21    -1     0     0   511   503  0.000000000E+00  0.000000000E+00  9.133716247E+02  9.133716247E+02  0.000000000E+00  0.00000E+00  9.000E+00
      21    -1     0     0   501   502  0.000000000E+00  0.000000000E+00 -2.159424020E+02  2.159424020E+02  0.000000000E+00  0.00000E+00  9.000E+00
      25     1     1     2     0     0  1.202436726E+02  8.241889941E+01  1.402368570E+02  2.377890829E+02  1.250034244E+02  0.00000E+00  9.000E+00
       5     1     1     2   501     0 -3.905901645E+02 -5.835399388E+01  3.126274051E+02  5.037105539E+02  4.750000000E+00  0.00000E+00  9.000E+00
      -5     1     1     2     0   503  2.258692831E+02 -6.413912203E+00  1.233138209E+02  2.574624870E+02  4.750000000E+00  0.00000E+00  9.000E+00
      21     1     1     2   511   502  4.447720880E+01 -1.765099332E+01  1.212511398E+02  1.303519028E+02  1.907348633E-06  0.00000E+00  9.000E+00
#rwgt            1           9   5.7591785736259360E-003           3     2096481           0
</event>
<event>
      6   9999  3.45752E-01  2.01621E+01 -1.00000E+00  1.59943E-01
      21    -1     0     0   501   512  0.000000000E+00  0.000000000E+00  9.967055034E+00  9.967055034E+00  0.000000000E+00  0.00000E+00  9.000E+00
      21    -1     0     0   502   503  0.000000000E+00  0.000000000E+00 -6.737042696E+02  6.737042696E+02  0.000000000E+00  0.00000E+00  9.000E+00
      25     1     1     2     0     0  1.050172903E+01 -1.514443267E+01 -5.781618170E+02  5.918068611E+02  1.249985362E+02  0.00000E+00  9.000E+00
       5     1     1     2   501     0  3.826076783E-01 -1.327989801E+00 -3.940172550E+00  6.324350185E+00  4.750000000E+00  0.00000E+00  9.000E+00
      -5     1     1     2     0   503  7.427592445E-01  6.071476345E-04 -2.408863431E+01  2.456372314E+01  4.750000000E+00  0.00000E+00  9.000E+00
      21     1     1     2   502   512 -1.162709595E+01  1.647181533E+01 -5.754659078E+01  6.097639027E+01  1.168007728E-06  0.00000E+00  9.000E+00
#rwgt            1           9   7.2916693689849829E-004           3     2098109           0
</event>
<event>
      6   9999  3.45752E-01  6.71641E+00 -1.00000E+00  2.07454E-01
      21    -1     0     0   501   502  0.000000000E+00  0.000000000E+00  1.266881709E+02  1.266881709E+02  0.000000000E+00  0.00000E+00  9.000E+00
      21    -1     0     0   502   511  0.000000000E+00  0.000000000E+00 -2.120008835E+03  2.120008835E+03  0.000000000E+00  0.00000E+00  9.000E+00
      25     1     1     2     0     0 -7.257411749E+00 -1.397227895E+01 -4.428334188E+02  4.604064398E+02  1.249990334E+02  0.00000E+00  9.000E+00
       5     1     1     2   501     0  3.089581054E+00  2.872868326E+00  1.153180784E+02  1.154929460E+02  4.750000000E+00  0.00000E+00  9.000E+00
      -5     1     1     2     0   503 -2.539712999E+00  1.075437705E+01 -1.203961346E+01  1.701827136E+01  4.750000000E+00  0.00000E+00  9.000E+00
      21     1     1     2   503   511  6.707543694E+00  3.450335784E-01 -1.653765710E+03  1.653779348E+03  3.051757812E-05  0.00000E+00  9.000E+00
#rwgt            1           9   2.5865897821486663E-004           3     2099731           0
</event>
<event>
      6   9999  3.45752E-01  2.83823E+00 -1.00000E+00  2.83363E-01
      21    -1     0     0   512   502  0.000000000E+00  0.000000000E+00  2.399690709E+03  2.399690709E+03  0.000000000E+00  0.00000E+00  9.000E+00
      21    -1     0     0   502   503  0.000000000E+00  0.000000000E+00 -2.838692710E+00  2.838692710E+00  0.000000000E+00  0.00000E+00  9.000E+00
      25     1     1     2     0     0  1.863475668E+00  3.071967384E+00  1.430592482E+03  1.436047921E+03  1.250034896E+02  0.00000E+00  9.000E+00
       5     1     1     2   501     0  9.737801343E-01  5.514956635E-01  7.272720658E+02  7.272884383E+02  4.750000000E+00  0.00000E+00  9.000E+00
      -5     1     1     2     0   503 -4.780966692E+00 -1.555241476E+00  1.483546089E+02  1.485157530E+02  4.750000000E+00  0.00000E+00  9.000E+00
      21     1     1     2   512   501  1.943710889E+00 -2.068221572E+00  9.063285888E+01  9.067728856E+01  0.000000000E+00  0.00000E+00  9.000E+00
#rwgt            1           9   6.7333303042082940E-003           3     2105512           0
</event>
<event>
      6   9999 -3.45752E-01  7.29401E+00 -1.00000E+00  2.02887E-01
      21    -1     0     0   511   502  0.000000000E+00  0.000000000E+00  8.952738114E+00  8.952738114E+00  0.000000000E+00  0.00000E+00  9.000E+00
      21    -1     0     0   502   503  0.000000000E+00  0.000000000E+00 -1.661443167E+03  1.661443167E+03  0.000000000E+00  0.00000E+00  9.000E+00
      25     1     1     2     0     0 -3.398571418E+00 -3.821739429E+00 -1.612130052E+03  1.616977610E+03  1.250085245E+02  0.00000E+00  9.000E+00
       5     1     1     2   501     0  8.721988753E-01 -5.393491739E-01 -5.898107283E-01  4.895100112E+00  4.750000000E+00  0.00000E+00  9.000E+00
      -5     1     1     2     0   503 -2.234695121E+00 -1.164740613E+00 -4.080362478E+01  4.115639414E+01  4.750000000E+00  0.00000E+00  9.000E+00
      21     1     1     2   511   501  4.761067664E+00  5.525829216E+00  1.033057957E+00  7.366801379E+00  6.957422215E-07  0.00000E+00  9.000E+00
#rwgt            1           9  -3.5889161736843866E-002           3     2111063           0
</event>
<event>
      6   9999  3.45752E-01  3.39417E+01 -1.00000E+00  1.44452E-01
      21    -1     0     0   501   502  0.000000000E+00  0.000000000E+00  1.662071859E+01  1.662071859E+01  0.000000000E+00  0.00000E+00  9.000E+00
      21    -1     0     0   512   503  0.000000000E+00  0.000000000E+00 -1.187604530E+03  1.187604530E+03  0.000000000E+00  0.00000E+00  9.000E+00
      25     1     1     2     0     0  1.237276835E+01 -7.414391400E+00 -8.456605062E+02  8.549706942E+02  1.250005505E+02  0.00000E+00  9.000E+00
       5     1     1     2   501     0 -4.080073796E+00 -2.047809144E+00  2.198072341E+00  6.945109537E+00  4.750000000E+00  0.00000E+00  9.000E+00
      -5     1     1     2     0   503 -4.205977701E+01  6.023329391E+00 -6.628240788E+01  7.887474522E+01  4.750000000E+00  0.00000E+00  9.000E+00
      21     1     1     2   512   502  3.376708246E+01  3.438871152E+00 -2.612389698E+02  2.634346997E+02  0.000000000E+00  0.00000E+00  9.000E+00
#rwgt            1           9   6.5340899468227189E-005           3     2113601           0
</event>
<event>
      6   9999  3.45752E-01  9.93234E+00 -1.00000E+00  1.87505E-01
      21    -1     0     0   511   502  0.000000000E+00  0.000000000E+00  1.718241397E+01  1.718241397E+01  0.000000000E+00  0.00000E+00  9.000E+00
      21    -1     0     0   502   503  0.000000000E+00  0.000000000E+00 -5.681895763E+02  5.681895763E+02  0.000000000E+00  0.00000E+00  9.000E+00
      25     1     1     2     0     0  1.657711103E+01 -3.801494519E+00 -3.496299190E+02  3.716926891E+02  1.250004917E+02  0.00000E+00  9.000E+00
       5     1     1     2   501     0  9.431338257E-01  6.226360730E-01 -4.609969648E-01  4.904303752E+00  4.750000000E+00  0.00000E+00  9.000E+00
      -5     1     1     2     0   503 -7.654891886E+00  2.027244720E+00 -1.982851795E+02  1.985000806E+02  4.750000000E+00  0.00000E+00  9.000E+00
      21     1     1     2   511   501 -9.865352965E+00  1.151613726E+00 -2.631066936E+00  1.027491686E+01  8.940696716E-08  0.00000E+00  9.000E+00
#rwgt            1           9   5.4344454641835148E-002           3     2115125           0
</event>
<event>
      6   9999  3.45752E-01  2.17974E+01 -1.00000E+00  1.57409E-01
      21    -1     0     0   501   502  0.000000000E+00  0.000000000E+00  2.786270751E+02  2.786270751E+02  0.000000000E+00  0.00000E+00  9.000E+00
      21    -1     0     0   512   503  0.000000000E+00  0.000000000E+00 -2.818983327E+02  2.818983327E+02  0.000000000E+00  0.00000E+00  9.000E+00
      25     1     1     2     0     0  7.277255349E+01 -8.173757813E+01 -3.217466243E+01  1.692235293E+02  1.249980709E+02  0.00000E+00  9.000E+00
       5     1     1     2   501     0 -2.067918640E+00  1.969854399E+00  1.620632146E+02  1.621579620E+02  4.750000000E+00  0.00000E+00  9.000E+00
      -5     1     1     2     0   503 -8.848266758E+01  6.715547509E+01 -1.884377593E+01  1.127683053E+02  4.750000000E+00  0.00000E+00  9.000E+00
      21     1     1     2   512   502  1.777803272E+01  1.261224864E+01 -1.143160339E+02  1.163756111E+02  1.348699152E-06  0.00000E+00  9.000E+00
#rwgt            1           9   7.2022099753192882E-003           3     2117435           0
</event>
<event>
      6   9999  3.45752E-01  4.82431E+00 -1.00000E+00  2.32129E-01
      21    -1     0     0   501   511  0.000000000E+00  0.000000000E+00  4.077241622E+02  4.077241622E+02  0.000000000E+00  0.00000E+00  9.000E+00
      21    -1     0     0   502   503  0.000000000E+00  0.000000000E+00 -3.828067905E+01  3.828067905E+01  0.000000000E+00  0.00000E+00  9.000E+00
      25     1     1     2     0     0  8.464559938E+00 -8.566916498E+00  6.862319960E+01  1.431038012E+02  1.249980542E+02  0.00000E+00  9.000E+00
       5     1     1     2   501     0 -1.079692545E+00  2.560100283E+00  2.394177102E+02  2.394809436E+02  4.750000000E+00  0.00000E+00  9.000E+00
      -5     1     1     2     0   503 -9.574729951E+00  1.708154524E+00  3.726349976E+01  3.880366168E+01  4.750000000E+00  0.00000E+00  9.000E+00
      21     1     1     2   502   511  2.189862558E+00  4.298661691E+00  2.413907358E+01  2.461643482E+01  3.371747881E-07  0.00000E+00  9.000E+00
#rwgt            1           9   9.8930280402291504E-005           3     2119549           0
</event>
<event>
      6   9999  3.45752E-01  9.70722E+00 -1.00000E+00  1.88563E-01
      21    -1     0     0   501   502  0.000000000E+00  0.000000000E+00  1.377960646E+01  1.377960646E+01  0.000000000E+00  0.00000E+00  9.000E+00
      21    -1     0     0   512   503  0.000000000E+00  0.000000000E+00 -1.034063414E+03  1.034063414E+03  0.000000000E+00  0.00000E+00  9.000E+00
      25     1     1     2     0     0 -5.843644542E+00 -1.773097997E+00 -8.238765139E+02  8.333278455E+02  1.250019836E+02  0.00000E+00  9.000E+00
       5     1     1     2   501     0  5.555184006E-01 -2.552401960E-01  8.070489034E+00  9.384510722E+00  4.750000000E+00  0.00000E+00  9.000E+00
      -5     1     1     2     0   503 -4.313051508E+00  5.974258103E-01 -6.633274556E+01  6.664499205E+01  4.750000000E+00  0.00000E+00  9.000E+00
      21     1     1     2   512   502  9.601177650E+00  1.430912383E+00 -1.381450367E+02  1.384856718E+02  1.907348633E-06  0.00000E+00  9.000E+00
#rwgt            1           9   7.5732687239391308E-004           3     2124868           0
</event>
<event>
      6   9999  3.45752E-01  7.27200E+00 -1.00000E+00  2.03051E-01
      21    -1     0     0   502   503  0.000000000E+00  0.000000000E+00  9.602794348E+00  9.602794348E+00  0.000000000E+00  0.00000E+00  9.000E+00
      21    -1     0     0   501   511  0.000000000E+00  0.000000000E+00 -1.339344099E+03  1.339344099E+03  0.000000000E+00  0.00000E+00  9.000E+00
      25     1     1     2     0     0 -3.421550428E+01  3.735960590E+00 -5.782339718E+02  5.925914618E+02  1.250018253E+02  0.00000E+00  9.000E+00
       5     1     1     2   501     0 -1.970693786E+00 -3.237640995E+00 -6.453849085E+01  6.482395587E+01  4.750000000E+00  0.00000E+00  9.000E+00
      -5     1     1     2     0   503  3.263279496E+01 -6.843028829E+00 -1.233353843E+02  1.278511082E+02  4.750000000E+00  0.00000E+00  9.000E+00
      21     1     1     2   502   511  3.553403105E+00  6.344709234E+00 -5.636334572E+02  5.636803669E+02  7.629394531E-06  0.00000E+00  9.000E+00
#rwgt            1           9   2.2580660471271243E-002           3     2127536           0
</event>
<event>
      6   9999  3.45752E-01  3.32798E+01 -1.00000E+00  1.44981E-01
      21    -1     0     0   501   502  0.000000000E+00  0.000000000E+00  2.949287142E+01  2.949287142E+01  0.000000000E+00  0.00000E+00  9.000E+00
      21    -1     0     0   502   512  0.000000000E+00  0.000000000E+00 -1.338319324E+03  1.338319324E+03  0.000000000E+00  0.00000E+00  9.000E+00
      25     1     1     2     0     0  8.734230998E+01 -8.174286526E+01 -4.361561261E+02  4.692200201E+02  1.249987430E+02  0.00000E+00  9.000E+00
       5     1     1     2   501     0  1.072706065E+00 -5.977928520E+00  6.811867930E+00  1.028836102E+01  4.750000000E+00  0.00000E+00  9.000E+00
      -5     1     1     2     0   503 -6.705823621E+01  6.219761989E+01 -6.508177158E+02  6.572302584E+02  4.750000000E+00  0.00000E+00  9.000E+00
      21     1     1     2   503   512 -2.135677983E+01  2.552317389E+01 -2.286644782E+02  2.310735555E+02  3.814697266E-06  0.00000E+00  9.000E+00
#rwgt            1           9   1.5688467740664701E-002           3     2131198           0
</event>
<event>
      6   9999  3.45752E-01  2.26542E+01 -1.00000E+00  1.56187E-01
      21    -1     0     0   501   502  0.000000000E+00  0.000000000E+00  8.630955435E+00  8.630955435E+00  0.000000000E+00  0.00000E+00  9.000E+00
      21    -1     0     0   502   511  0.000000000E+00  0.000000000E+00 -1.659806889E+03  1.659806889E+03  0.000000000E+00  0.00000E+00  9.000E+00
      25     1     1     2     0     0 -1.380958892E+01  1.879970219E+01 -5.290827372E+02  5.441483628E+02  1.249990577E+02  0.00000E+00  9.000E+00
       5     1     1     2   501     0 -3.277888841E+00 -7.158514812E+00 -3.359879087E+01  3.483432413E+01  4.750000000E+00  0.00000E+00  9.000E+00
      -5     1     1     2     0   503  1.100031885E+01  1.017985139E+01 -1.820394475E+02  1.827171566E+02  4.750000000E+00  0.00000E+00  9.000E+00
      21     1     1     2   503   511  6.087158909E+00 -2.182103877E+01 -9.064549578E+02  9.067380006E+02  1.078959322E-05  0.00000E+00  9.000E+00
#rwgt            1           9   1.6293652108596790                3     2132650           0
</event>
<event>
      6   9999  3.45752E-01  7.09017E+00 -1.00000E+00  2.04433E-01
      21    -1     0     0   512   502  0.000000000E+00  0.000000000E+00  3.012326619E+02  3.012326619E+02  0.000000000E+00  0.00000E+00  9.000E+00
      21    -1     0     0   502   503  0.000000000E+00  0.000000000E+00 -6.447126416E+02  6.447126416E+02  0.000000000E+00  0.00000E+00  9.000E+00
      25     1     1     2     0     0  5.813055026E+01 -2.216625220E+00 -2.824281507E+01  1.407352269E+02  1.249986928E+02  0.00000E+00  9.000E+00
       5     1     1     2   501     0  3.459717585E-01  4.355424128E+00  3.301122234E+01  3.363618165E+01  4.750000000E+00  0.00000E+00  9.000E+00
      -5     1     1     2     0   503 -5.478812911E+01  3.916464600E+00 -5.584940396E+02  5.612087246E+02  4.750000000E+00  0.00000E+00  9.000E+00
      21     1     1     2   512   501 -3.688392905E+00 -6.055263509E+00  2.102456527E+02  2.103651704E+02  0.000000000E+00  0.00000E+00  9.000E+00
#rwgt            1           9   3.1972895449123018E-002           3     2133956           0
</event>
<event>
      6   9999  3.45752E-01  3.70916E+01 -1.00000E+00  1.42114E-01
      21    -1     0     0   511   502  0.000000000E+00  0.000000000E+00  7.603551521E+02  7.603551521E+02  0.000000000E+00  0.00000E+00  9.000E+00
      21    -1     0     0   502   503  0.000000000E+00  0.000000000E+00 -1.462895382E+03  1.462895382E+03  0.000000000E+00  0.00000E+00  9.000E+00
      25     1     1     2     0     0 -3.139166255E+01  9.000864908E+00 -1.246344160E+03  1.253020653E+03  1.249821540E+02  0.00000E+00  9.000E+00
       5     1     1     2   501     0  9.435942315E+00  1.305277019E+01  7.669732643E+01  7.851403823E+01  4.750000000E+00  0.00000E+00  9.000E+00
      -5     1     1     2     0   503  1.479002177E+01  1.433920606E+01 -2.112704533E+02  2.123255155E+02  4.750000000E+00  0.00000E+00  9.000E+00
      21     1     1     2   511   501  7.165698469E+00 -3.639284115E+01  6.783770569E+02  6.793903278E+02  1.078959322E-05  0.00000E+00  9.000E+00
#rwgt            1           9  0.21883753723789134                3     2139360           0
</event>
<event>
      6   9999  3.45752E-01  3.05392E+00 -1.00000E+00  2.74904E-01
      21    -1     0     0   501   502  0.000000000E+00  0.000000000E+00  7.323164903E+02  7.323164903E+02  0.000000000E+00  0.00000E+00  9.000E+00
      21    -1     0     0   502   512  0.000000000E+00  0.000000000E+00 -7.907081943E+00  7.907081943E+00  0.000000000E+00  0.00000E+00  9.000E+00
      25     1     1     2     0     0  3.003870833E+00 -5.033371760E+00  5.787963198E+02  5.921691597E+02  1.249991034E+02  0.00000E+00  9.000E+00
       5     1     1     2   501     0 -1.542693409E-01  7.485689038E-02  7.116852311E+01  7.132706768E+01  4.750000000E+00  0.00000E+00  9.000E+00
      -5     1     1     2     0   503 -4.190618653E+00  2.214774240E+00  7.307146719E+01  7.337893653E+01  4.750000000E+00  0.00000E+00  9.000E+00
      21     1     1     2   503   512  1.341017160E+00  2.743740630E+00  1.373098354E+00  3.348408392E+00  1.737759082E-07  0.00000E+00  9.000E+00
#rwgt            1           9   6.4796251225374265E-005           3     2141179           0
</event>
<event>
      6   9999  3.45752E-01  6.99433E+00 -1.00000E+00  2.05183E-01
      21    -1     0     0   501   502  0.000000000E+00  0.000000000E+00  1.925250287E+03  1.925250287E+03  0.000000000E+00  0.00000E+00  9.000E+00
      21    -1     0     0   511   503  0.000000000E+00  0.000000000E+00 -4.743902316E+01  4.743902316E+01  0.000000000E+00  0.00000E+00  9.000E+00
      25     1     1     2     0     0  9.945740335E+00  7.080318254E-01  3.230726697E+02  3.465554910E+02  1.250013575E+02  0.00000E+00  9.000E+00
       5     1     1     2   501     0 -2.711043288E+00 -6.009327881E+00  1.562248958E+03  1.562270089E+03  4.750000000E+00  0.00000E+00  9.000E+00
      -5     1     1     2     0   503 -2.345734165E+00  2.994326042E-01  2.757863007E+01  2.808443457E+01  4.750000000E+00  0.00000E+00  9.000E+00
      21     1     1     2   511   502 -4.888962883E+00  5.001863451E+00 -3.508899322E+01  3.577929627E+01  2.611744678E-06  0.00000E+00  9.000E+00
#rwgt            1           9   1.8738030552974514                3     2146771           0
</event>
<event>
      6   9999 -3.45752E-01  2.11423E+01 -1.00000E+00  1.58391E-01
      21    -1     0     0   512   502  0.000000000E+00  0.000000000E+00  1.145241131E+01  1.145241131E+01  0.000000000E+00  0.00000E+00  9.000E+00
      21    -1     0     0   502   503  0.000000000E+00  0.000000000E+00 -7.917562458E+02  7.917562458E+02  0.000000000E+00  0.00000E+00  9.000E+00
      25     1     1     2     0     0 -9.605010766E+00 -1.268806213E+01 -7.076845055E+02  7.188174699E+02  1.250118093E+02  0.00000E+00  9.000E+00
       5     1     1     2   501     0 -1.596447062E+00 -3.655539837E+00  6.896425934E-01  6.240971209E+00  4.750000000E+00  0.00000E+00  9.000E+00
      -5     1     1     2     0   503 -1.214856945E+00 -7.687261206E-01 -2.386679566E+01  2.437731020E+01  4.750000000E+00  0.00000E+00  9.000E+00
      21     1     1     2   512   501  1.241631477E+01  1.711232809E+01 -4.944217589E+01  5.377290584E+01  6.743495762E-07  0.00000E+00  9.000E+00
#rwgt            1           9  -7.5027247819862248E-004           3     2150907           0
</event>
<event>
      6   9999  3.45752E-01  5.08693E+00 -1.00000E+00  2.24558E-01
      21    -1     0     0   501   502  0.000000000E+00  0.000000000E+00  2.529059228E+03  2.529059228E+03  0.000000000E+00  0.00000E+00  9.000E+00
      21    -1     0     0   502   511  0.000000000E+00  0.000000000E+00 -4.836668307E+02  4.836668307E+02  0.000000000E+00  0.00000E+00  9.000E+00
      25     1     1     2     0     0 -3.050285429E+00  1.854296729E+01  9.801284727E+01  1.599515090E+02  1.249992845E+02  0.00000E+00  9.000E+00
       5     1     1     2   501     0 -2.106846097E+00 -1.338512556E+01  2.392023397E+03  2.392066491E+03  4.750000000E+00  0.00000E+00  9.000E+00
      -5     1     1     2     0   503  1.012203543E+01 -4.050327365E+00  3.607939820E+00  1.242740853E+01  4.750000000E+00  0.00000E+00  9.000E+00
      21     1     1     2   503   511 -4.964903908E+00 -1.107514366E+00 -4.482517872E+02  4.482806505E+02  1.321449896E-05  0.00000E+00  9.000E+00
#rwgt            1           9   4.2134194648473942E-004           3     2152236           0
</event>
<event>
      6   9999  3.45752E-01  4.65569E+01 -1.00000E+00  1.36467E-01
      21    -1     0     0   501   502  0.000000000E+00  0.000000000E+00  5.630305169E+02  5.630305169E+02  0.000000000E+00  0.00000E+00  9.000E+00
      21    -1     0     0   512   503  0.000000000E+00  0.000000000E+00 -2.108155881E+02  2.108155881E+02  0.000000000E+00  0.00000E+00  9.000E+00
      25     1     1     2     0     0 -2.531502885E+01 -1.542291080E+02  4.033982958E+01  2.041581457E+02  1.250031127E+02  0.00000E+00  9.000E+00
       5     1     1     2   501     0  1.944380323E+00 -9.762995523E+00  3.840220063E+02  3.841803750E+02  4.750000000E+00  0.00000E+00  9.000E+00
      -5     1     1     2     0   503 -7.729497796E-01  1.241846515E+02 -5.480829291E+01  1.358268626E+02  4.750000000E+00  0.00000E+00  9.000E+00
      21     1     1     2   512   502  2.414359830E+01  3.980745198E+01 -1.733861414E+01  4.968072174E+01  9.233911863E-07  0.00000E+00  9.000E+00
#rwgt            1           9  0.13394514032163957                3     2158852           0
</event>
<event>
      6   9999  3.45752E-01  2.06272E+01 -1.00000E+00  1.59194E-01
      21    -1     0     0   511   503  0.000000000E+00  0.000000000E+00  3.214366452E+01  3.214366452E+01  0.000000000E+00  0.00000E+00  9.000E+00
      21    -1     0     0   501   502  0.000000000E+00  0.000000000E+00 -6.242672039E+02  6.242672039E+02  0.000000000E+00  0.00000E+00  9.000E+00
      25     1     1     2     0     0 -1.004146428E+02  4.159266613E+01 -3.673083841E+02  4.029254230E+02  1.249815872E+02  0.00000E+00  9.000E+00
       5     1     1     2   501     0  8.035827991E+01 -3.634415781E+01 -1.636530393E+02  1.859656708E+02  4.750000000E+00  0.00000E+00  9.000E+00
      -5     1     1     2     0   503  2.541008099E+00  5.646071133E+00 -2.025638372E+01  2.170756602E+01  4.750000000E+00  0.00000E+00  9.000E+00
      21     1     1     2   511   502  1.751535484E+01 -1.089457945E+01 -4.090573224E+01  4.581220849E+01  6.743495762E-07  0.00000E+00  9.000E+00
#rwgt            1           9   6.5362856431952370                3     2160547           0
</event>
<event>
      6   9999  3.45752E-01  8.51657E+00 -1.00000E+00  1.94852E-01
      21    -1     0     0   502   503  0.000000000E+00  0.000000000E+00  6.971651433E+00  6.971651433E+00  0.000000000E+00  0.00000E+00  9.000E+00
      21    -1     0     0   512   502  0.000000000E+00  0.000000000E+00 -7.605895733E+02  7.605895733E+02  0.000000000E+00  0.00000E+00  9.000E+00
      25     1     1     2     0     0  6.716631614E+00 -2.404086326E-01 -6.311855390E+02  6.434792991E+02  1.250010107E+02  0.00000E+00  9.000E+00
       5     1     1     2   501     0  2.273748340E+00  1.027248409E+00 -2.901111505E+01  2.950309251E+01  4.750000000E+00  0.00000E+00  9.000E+00
      -5     1     1     2     0   503 -7.428920881E-01 -2.910710467E+00 -2.467038081E+01  2.530245666E+01  4.750000000E+00  0.00000E+00  9.000E+00
      21     1     1     2   512   501 -8.247487866E+00  2.123870691E+00 -6.875088699E+01  6.927637652E+01  9.536743164E-07  0.00000E+00  9.000E+00
#rwgt            1           9   1.7485368040316210E-004           3     2162232           0
</event>
<event>
      6   9999  3.45752E-01  4.59391E+00 -1.00000E+00  2.36030E-01
      21    -1     0     0   501   511  0.000000000E+00  0.000000000E+00  2.591967252E+01  2.591967252E+01  0.000000000E+00  0.00000E+00  9.000E+00
      21    -1     0     0   502   503  0.000000000E+00  0.000000000E+00 -9.617994803E+02  9.617994803E+02  0.000000000E+00  0.00000E+00  9.000E+00
      25     1     1     2     0     0 -4.577016792E+01 -2.237105719E+00 -8.657247640E+02  8.759011085E+02  1.249938879E+02  0.00000E+00  9.000E+00
       5     1     1     2   501     0  4.249003594E+01  1.821311713E+00 -7.427203709E+00  4.343323825E+01  4.750000000E+00  0.00000E+00  9.000E+00
      -5     1     1     2     0   503 -1.209422687E+00 -5.577968682E-01 -6.353012362E+01  6.372136963E+01  4.750000000E+00  0.00000E+00  9.000E+00
      21     1     1     2   502   511  4.489554674E+00  9.735908739E-01  8.022835358E-01  4.663436419E+00  1.037745794E-07  0.00000E+00  9.000E+00
#rwgt            1           9   8.8995207658685320                3     2165229           0
</event>
<event>
      6   9999  3.45752E-01  1.78974E+02 -1.00000E+00  1.10589E-01
      21    -1     0     0   512   502  0.000000000E+00  0.000000000E+00  2.070638103E+02  2.070638103E+02  0.000000000E+00  0.00000E+00  9.000E+00
       1    -1     0     0   501     0  0.000000000E+00  0.000000000E+00 -2.393273134E+02  2.393273134E+02  0.000000000E+00  0.00000E+00  9.000E+00
      25     1     1     2     0     0 -1.033902471E+01  1.308440323E+02 -7.050724707E+01  1.944516068E+02  1.249523880E+02  0.00000E+00  9.000E+00
       5     1     1     2   501     0  8.134869000E-01  8.984067293E+00  2.693941601E+00  1.054490623E+01  4.750000000E+00  0.00000E+00  9.000E+00
      -5     1     1     2     0   502  3.229842293E+01  3.769101565E+01 -2.040613055E+01  5.387739274E+01  4.750000000E+00  0.00000E+00  9.000E+00
       1     1     1     2   512     0 -2.277288512E+01 -1.775191152E+02  5.595593292E+01  1.875172179E+02  4.422005890E-06  0.00000E+00  9.000E+00
#rwgt            1           1   4.0809774345232075E-005           3     2170617           0
</event>
<event>
      6   9999  3.45752E-01  1.72532E+01 -1.00000E+00  1.65267E-01
      21    -1     0     0   511   502  0.000000000E+00  0.000000000E+00  1.013199896E+01  1.013199896E+01  0.000000000E+00  0.00000E+00  9.000E+00
      21    -1     0     0   502   503  0.000000000E+00  0.000000000E+00 -1.263876153E+03  1.263876153E+03  0.000000000E+00  0.00000E+00  9.000E+00
      25     1     1     2     0     0  4.344820177E+00 -3.122305481E+01 -1.127892149E+03  1.135237885E+03  1.250223963E+02  0.00000E+00  9.000E+00
       5     1     1     2   501     0  2.113366745E+00  1.868162034E-01  6.691909117E-01  5.245144018E+00  4.750000000E+00  0.00000E+00  9.000E+00
      -5     1     1     2     0   503  8.059551761E+00  2.171372912E+01 -5.346856419E+01  5.846274252E+01  4.750000000E+00  0.00000E+00  9.000E+00
      21     1     1     2   511   501 -1.451773868E+01  9.322509486E+00 -7.305263216E+01  7.506238063E+01  9.536743164E-07  0.00000E+00  9.000E+00
#rwgt            1           9   1.6834477000106625E-003           3     2170718           0
</event>
<event>
      6   9999  3.45752E-01  2.85811E+01 -1.00000E+00  1.49212E-01
      21    -1     0     0   501   502  0.000000000E+00  0.000000000E+00  5.310163938E+00  5.310163938E+00  0.000000000E+00  0.00000E+00  9.000E+00
       2    -1     0     0   502     0  0.000000000E+00  0.000000000E+00 -3.642789034E+03  3.642789034E+03  0.000000000E+00  0.00000E+00  9.000E+00
      25     1     1     2     0     0  1.246008334E+01 -3.383275085E+01 -1.403143929E+03  1.409170387E+03  1.250935089E+02  0.00000E+00  9.000E+00
       5     1     1     2   501     0 -7.747962527E-01 -2.032152672E+00 -6.820432613E+00  8.591318568E+00  4.750000000E+00  0.00000E+00  9.000E+00
      -5     1     1     2     0   503 -1.393055165E+01  7.372162966E+00 -5.009199227E+01  5.272740507E+01  4.750000000E+00  0.00000E+00  9.000E+00
       2     1     1     2   503     0  2.245264570E+00  2.849274056E+01 -2.177422516E+03  2.177610087E+03  4.315837288E-05  0.00000E+00  9.000E+00
#rwgt            1           9   1.5246973865213753E-006           3     2172204           0
</event>
<event>
      6   9999  3.45752E-01  2.61697E+01 -1.00000E+00  1.51781E-01
      21    -1     0     0   501   502  0.000000000E+00  0.000000000E+00  5.808935890E+01  5.808935890E+01  0.000000000E+00  0.00000E+00  9.000E+00
      21    -1     0     0   511   503  0.000000000E+00  0.000000000E+00 -1.481025383E+03  1.481025383E+03  0.000000000E+00  0.00000E+00  9.000E+00
      25     1     1     2     0     0 -7.902647850E+01  9.463110051E+01 -9.168380988E+02  9.334973591E+02  1.249999627E+02  0.00000E+00  9.000E+00
       5     1     1     2   501     0  1.175579213E+00  3.924149801E+00  4.229022353E+01  4.275285305E+01  4.750000000E+00  0.00000E+00  9.000E+00
      -5     1     1     2     0   503  6.563749766E+01 -7.541040358E+01 -4.114814362E+02  4.234790962E+02  4.750000000E+00  0.00000E+00  9.000E+00
      21     1     1     2   511   502  1.221340163E+01 -2.314484674E+01 -1.369067122E+02  1.393854331E+02  0.000000000E+00  0.00000E+00  9.000E+00
#rwgt            1           9   2.4574037444404268E-003           3     2173027           0
</event>
<event>
      6   9999  3.45752E-01  1.58440E+01 -1.00000E+00  1.68337E-01
      21    -1     0     0   512   502  0.000000000E+00  0.000000000E+00  5.430960545E+01  5.430960545E+01  0.000000000E+00  0.00000E+00  9.000E+00
      21    -1     0     0   502   503  0.000000000E+00  0.000000000E+00 -2.981607493E+03  2.981607493E+03  0.000000000E+00  0.00000E+00  9.000E+00
      25     1     1     2     0     0  6.070179651E+00 -1.385672818E+00 -2.493209379E+03  2.496348856E+03  1.250033356E+02  0.00000E+00  9.000E+00
       5     1     1     2   501     0 -7.167797723E-01  1.708449977E+01  1.646736045E+01  2.421012941E+01  4.750000000E+00  0.00000E+00  9.000E+00
      -5     1     1     2     0   503 -6.861442269E-01 -5.578482061E-01 -4.810072204E+02  4.810314860E+02  4.750000000E+00  0.00000E+00  9.000E+00
      21     1     1     2   512   501 -4.667255652E+00 -1.514097874E+01  3.045135168E+01  3.432662716E+01  3.388564683E-06  0.00000E+00  9.000E+00
#rwgt            1           9   3.6316000264811675E-003           3     2175141           0
</event>
<event>
      6   9999  3.45752E-01  6.03801E+00 -1.00000E+00  2.13677E-01
      21    -1     0     0   501   511  0.000000000E+00  0.000000000E+00  2.755876737E+01  2.755876737E+01  0.000000000E+00  0.00000E+00  9.000E+00
      21    -1     0     0   502   503  0.000000000E+00  0.000000000E+00 -7.305106007E+02  7.305106007E+02  0.000000000E+00  0.00000E+00  9.000E+00
      25     1     1     2     0     0  9.495207716E+00  4.317262321E+00 -6.921339463E+02  7.034080231E+02  1.249985984E+02  0.00000E+00  9.000E+00
       5     1     1     2   501     0 -2.179828112E+00  1.225274741E+00  1.513814598E+00  5.577372448E+00  4.750000000E+00  0.00000E+00  9.000E+00
      -5     1     1     2     0   503 -1.232441961E+01 -2.171033532E+00 -2.868351699E+01  3.165298330E+01  4.750000000E+00  0.00000E+00  9.000E+00
      21     1     1     2   502   511  5.009040002E+00 -3.371503531E+00  1.635181538E+01  1.743098919E+01  7.152557373E-07  0.00000E+00  9.000E+00
#rwgt            1           9   1.5790360169049442E-004           3     2177854           0
</event>
<event>
      6   9999  3.45752E-01  8.01159E+00 -1.00000E+00  1.97941E-01
      21    -1     0     0   501   512  0.000000000E+00  0.000000000E+00  2.591156105E+01  2.591156105E+01  0.000000000E+00  0.00000E+00  9.000E+00
      21    -1     0     0   502   503  0.000000000E+00  0.000000000E+00 -6.683098315E+02  6.683098315E+02  0.000000000E+00  0.00000E+00  9.000E+00
      25     1     1     2     0     0  4.259078428E+00  8.818629756E+00 -6.296359043E+02  6.419987159E+02  1.250002849E+02  0.00000E+00  9.000E+00
       5     1     1     2   501     0 -1.383081450E-01  9.783667454E-01 -4.033698558E+00  6.309481333E+00  4.750000000E+00  0.00000E+00  9.000E+00
      -5     1     1     2     0   503 -8.171120455E+00 -2.884676696E+00 -2.548843281E+01  2.733699464E+01  4.750000000E+00  0.00000E+00  9.000E+00
      21     1     1     2   502   512  4.050350171E+00 -6.912319806E+00  1.675976522E+01  1.857620068E+01  6.743495762E-07  0.00000E+00  9.000E+00
#rwgt            1           9   7.5520430417972577E-004           3     2181316           0
</event>
<event>
      6   9999  3.45752E-01  2.62296E+01 -1.00000E+00  1.51713E-01
      21    -1     0     0   501   511  0.000000000E+00  0.000000000E+00  7.087663882E+01  7.087663882E+01  0.000000000E+00  0.00000E+00  9.000E+00
      21    -1     0     0   502   503  0.000000000E+00  0.000000000E+00 -1.263258346E+03  1.263258346E+03  0.000000000E+00  0.00000E+00  9.000E+00
      25     1     1     2     0     0  5.908113886E+01  1.481222881E+01 -6.387386250E+02  6.536976840E+02  1.249945917E+02  0.00000E+00  9.000E+00
       5     1     1     2   501     0  2.954863700E+00 -1.108148203E+00  1.085617333E+01  1.226287940E+01  4.750000000E+00  0.00000E+00  9.000E+00
      -5     1     1     2     0   503 -3.597560198E+01 -1.667854858E+01 -6.123261486E+02  6.136271609E+02  4.750000000E+00  0.00000E+00  9.000E+00
      21     1     1     2   502   511 -2.606040058E+01  2.974467970E+00  4.782689298E+01  5.454726052E+01  1.168007728E-06  0.00000E+00  9.000E+00
#rwgt            1           9  0.30774752235245184                3     2183593           0
</event>
<event>
      6   9999  3.45752E-01  9.10627E+00 -1.00000E+00  1.91581E-01
      21    -1     0     0   501   502  0.000000000E+00  0.000000000E+00  1.385499270E+02  1.385499270E+02  0.000000000E+00  0.00000E+00  9.000E+00
      21    -1     0     0   502   512  0.000000000E+00  0.000000000E+00 -2.632372852E+02  2.632372852E+02  0.000000000E+00  0.00000E+00  9.000E+00
      25     1     1     2     0     0 -1.194127134E+00  4.668235880E-01 -1.868480955E+02  2.248066185E+02  1.249966442E+02  0.00000E+00  9.000E+00
       5     1     1     2   501     0 -1.551093068E+00  8.198571574E+00  1.145833110E+02  1.149848691E+02  4.750000000E+00  0.00000E+00  9.000E+00
      -5     1     1     2     0   503 -5.891279547E+00 -5.778354070E+00 -7.766448025E-01  9.553126588E+00  4.750000000E+00  0.00000E+00  9.000E+00
      21     1     1     2   503   512  8.636499749E+00 -2.887041092E+00 -5.164592875E+01  5.244259806E+01  6.743495762E-07  0.00000E+00  9.000E+00
#rwgt            1           9   1.1117961753797632E-003           3     2185382           0
</event>
<event>
      6   9999  3.45752E-01  1.18677E+01 -1.00000E+00  1.79686E-01
      21    -1     0     0   501   511  0.000000000E+00  0.000000000E+00  1.416229876E+02  1.416229876E+02  0.000000000E+00  0.00000E+00  9.000E+00
      21    -1     0     0   502   503  0.000000000E+00  0.000000000E+00 -8.609323659E+01  8.609323659E+01  0.000000000E+00  0.00000E+00  9.000E+00
      25     1     1     2     0     0 -8.669062385E+00 -9.061541638E+00 -3.166986347E+01  1.295537934E+02  1.249957638E+02  0.00000E+00  9.000E+00
       5     1     1     2   501     0 -3.139739158E+00  2.229378250E+00  7.744396106E+01  7.768499015E+01  4.750000000E+00  0.00000E+00  9.000E+00
      -5     1     1     2     0   503  3.587600654E-01  3.711282738E+00  2.298352786E+00  6.461211486E+00  4.750000000E+00  0.00000E+00  9.000E+00
      21     1     1     2   502   511  1.145004148E+01  3.120880650E+00  7.457300629E+00  1.401622911E+01  8.429369702E-08  0.00000E+00  9.000E+00
#rwgt            1           9  0.18490611693848572                3     2189075           0
</event>
<event>
      6   9999  3.45752E-01  1.03839E+01 -1.00000E+00  1.85487E-01
      21    -1     0     0   501   502  0.000000000E+00  0.000000000E+00  2.960382128E+01  2.960382128E+01  0.000000000E+00  0.00000E+00  9.000E+00
      21    -1     0     0   502   512  0.000000000E+00  0.000000000E+00 -1.290741466E+03  1.290741466E+03  0.000000000E+00  0.00000E+00  9.000E+00
      25     1     1     2     0     0  6.137491110E+00 -1.265986544E+01 -5.737015477E+02  5.873307815E+02  1.250041602E+02  0.00000E+00  9.000E+00
       5     1     1     2   501     0  1.633109692E+00 -8.154791957E+00  2.147431079E+01  2.351331970E+01  4.750000000E+00  0.00000E+00  9.000E+00
      -5     1     1     2     0   503 -1.269656817E+01  1.167356649E+01 -5.177337674E+02  5.180427506E+02  4.750000000E+00  0.00000E+00  9.000E+00
      21     1     1     2   503   512  4.925967364E+00  9.141090905E+00 -1.911766401E+02  1.914584352E+02  0.000000000E+00  0.00000E+00  9.000E+00
#rwgt            1           9   11.702132197267387                3     2191322           0
</event>
<event>
      6   9999  3.45752E-01  4.46667E+01 -1.00000E+00  1.37462E-01
      21    -1     0     0   502   511  0.000000000E+00  0.000000000E+00  3.745206933E+01  3.745206933E+01  0.000000000E+00  0.00000E+00  9.000E+00
      21    -1     0     0   501   502  0.000000000E+00  0.000000000E+00 -4.511429093E+02  4.511429093E+02  0.000000000E+00  0.00000E+00  9.000E+00
      25     1     1     2     0     0 -1.389174458E+01  4.797570291E+01 -2.771482976E+02  3.081077418E+02  1.249982121E+02  0.00000E+00  9.000E+00
       5     1     1     2   501     0 -1.867418617E+00  6.610843671E-01 -3.884959435E+01  3.918900058E+01  4.750000000E+00  0.00000E+00  9.000E+00
      -5     1     1     2     0   503  7.351326237E+00 -4.768541612E+00 -9.608711083E+01  9.660267261E+01  4.750000000E+00  0.00000E+00  9.000E+00
      21     1     1     2   503   511  8.407836958E+00 -4.386824567E+01 -1.605837164E+00  4.469556369E+01  9.915712332E-07  0.00000E+00  9.000E+00
#rwgt            1           9   6.3733707374080892E-003           3     2194621           0
</event>
<event>
      6   9999  3.45752E-01  1.10619E+01 -1.00000E+00  1.82692E-01
      21    -1     0     0   512   502  0.000000000E+00  0.000000000E+00  7.238135877E+01  7.238135877E+01  0.000000000E+00  0.00000E+00  9.000E+00
      21    -1     0     0   502   503  0.000000000E+00  0.000000000E+00 -1.312324855E+02  1.312324855E+02  0.000000000E+00  0.00000E+00  9.000E+00
      25     1     1     2     0     0 -6.435744757E+00 -5.066622166E+00 -8.791442673E+01  1.530388622E+02  1.249994297E+02  0.00000E+00  9.000E+00
       5     1     1     2   501     0 -8.886969934E-01 -3.481480872E+00  2.036779378E+01  2.122074492E+01  4.750000000E+00  0.00000E+00  9.000E+00
      -5     1     1     2     0   503  4.171992739E-01 -9.224683073E-02 -8.007628986E+00  9.320256793E+00  4.750000000E+00  0.00000E+00  9.000E+00
      21     1     1     2   512   501  6.907242477E+00  8.640349868E+00  1.670313520E+01  2.003398039E+01  3.371747881E-07  0.00000E+00  9.000E+00
#rwgt            1           9   2.3702699468740276E-002           3     2195170           0
</event>
<event>
      6   9999  3.45752E-01  4.71432E+01 -1.00000E+00  1.36169E-01
      21    -1     0     0   502   503  0.000000000E+00  0.000000000E+00  3.328440937E+01  3.328440937E+01  0.000000000E+00  0.00000E+00  9.000E+00
       2    -1     0     0   501     0  0.000000000E+00  0.000000000E+00 -1.847367248E+03  1.847367248E+03  0.000000000E+00  0.00000E+00  9.000E+00
      25     1     1     2     0     0  2.014904965E+01 -6.198712223E+01 -1.813118186E+02  2.296685573E+02  1.250011326E+02  0.00000E+00  9.000E+00
       5     1     1     2   501     0 -5.170506441E+00  1.265020874E+02 -8.465843119E+02  8.560123083E+02  4.750000000E+00  0.00000E+00  9.000E+00
      -5     1     1     2     0   503 -5.337382903E+00 -1.836817482E+01 -2.283267281E+01  3.016240955E+01  4.750000000E+00  0.00000E+00  9.000E+00
       2     1     1     2   502     0 -9.641160304E+00 -4.614679034E+01 -7.633540348E+02  7.648083817E+02  0.000000000E+00  0.00000E+00  9.000E+00
#rwgt            1           9  0.19046558724457238                3     2197790           0
</event>
<event>
      6   9999  3.45752E-01  1.25188E+01 -1.00000E+00  1.77471E-01
      21    -1     0     0   502   503  0.000000000E+00  0.000000000E+00  1.376756009E+01  1.376756009E+01  0.000000000E+00  0.00000E+00  9.000E+00
      21    -1     0     0   511   502  0.000000000E+00  0.000000000E+00 -1.165144167E+03  1.165144167E+03  0.000000000E+00  0.00000E+00  9.000E+00
      25     1     1     2     0     0 -2.989338383E+01  3.834594274E+01 -6.475215009E+02  6.612655405E+02  1.249959806E+02  0.00000E+00  9.000E+00
       5     1     1     2   501     0 -1.434265695E+01  2.442440734E+00 -1.245821313E+02  1.255187128E+02  4.750000000E+00  0.00000E+00  9.000E+00
      -5     1     1     2     0   503  4.939277570E+01 -5.219573830E+01 -2.027435361E+02  2.151547009E+02  4.750000000E+00  0.00000E+00  9.000E+00
      21     1     1     2   511   501 -5.156734925E+00  1.140735483E+01 -1.765294386E+02  1.769727729E+02  1.907348633E-06  0.00000E+00  9.000E+00
#rwgt            1           9   1.3146422373178240E-002           3     2198793           0
</event>
<event>
      6   9999  3.45752E-01  4.05048E+01 -1.00000E+00  1.39871E-01
      21    -1     0     0   501   502  0.000000000E+00  0.000000000E+00  1.641526040E+01  1.641526040E+01  0.000000000E+00  0.00000E+00  9.000E+00
      21    -1     0     0   512   503  0.000000000E+00  0.000000000E+00 -1.335072863E+03  1.335072863E+03  0.000000000E+00  0.00000E+00  9.000E+00
      25     1     1     2     0     0  4.107058015E+01 -3.187789344E+01 -8.762497871E+02  8.866477594E+02  1.250102684E+02  0.00000E+00  9.000E+00
       5     1     1     2   501     0 -2.376656639E+01 -7.434418026E-01 -1.528308534E+01  2.866247689E+01  4.750000000E+00  0.00000E+00  9.000E+00
      -5     1     1     2     0   503  1.092163482E+01  3.570443502E+00 -7.329518292E+00  1.443310473E+01  4.750000000E+00  0.00000E+00  9.000E+00
      21     1     1     2   512   502 -2.822564858E+01  2.905089174E+01 -4.197952119E+02  4.217447824E+02  9.344061824E-06  0.00000E+00  9.000E+00
#rwgt            1           9   6.5119127453232807E-005           3     2200946           0
</event>
<event>
      6   9999 -3.45752E-01  6.35014E+00 -1.00000E+00  2.10683E-01
      21    -1     0     0   501   511  0.000000000E+00  0.000000000E+00  5.677012898E+02  5.677012898E+02  0.000000000E+00  0.00000E+00  9.000E+00
      21    -1     0     0   502   503  0.000000000E+00  0.000000000E+00 -1.468997432E+02  1.468997432E+02  0.000000000E+00  0.00000E+00  9.000E+00
      25     1     1     2     0     0 -1.420720277E+01 -2.017693680E+01 -9.493660472E+01  1.588993156E+02  1.250083205E+02  0.00000E+00  9.000E+00
       5     1     1     2   501     0  3.274936348E+00 -2.847821966E+00  4.427336333E+01  4.473844542E+01  4.750000000E+00  0.00000E+00  9.000E+00
      -5     1     1     2     0   503  1.109327817E+01  1.667666192E+01 -1.435891868E+01  2.509806604E+01  4.750000000E+00  0.00000E+00  9.000E+00
      21     1     1     2   502   511 -1.610117464E-01  6.348096844E+00  4.858237067E+02  4.858652059E+02  5.394796609E-06  0.00000E+00  9.000E+00
#rwgt            1           9 -0.78337757532268781                3     2201747           0
</event>
<event>
      6   9999  3.45752E-01  2.15568E+01 -1.00000E+00  1.57765E-01
      21    -1     0     0   501   512  0.000000000E+00  0.000000000E+00  1.938652381E+01  1.938652381E+01  0.000000000E+00  0.00000E+00  9.000E+00
      21    -1     0     0   502   503  0.000000000E+00  0.000000000E+00 -1.002284489E+03  1.002284489E+03  0.000000000E+00  0.00000E+00  9.000E+00
      25     1     1     2     0     0 -2.280695842E+01 -3.927144430E+00 -8.085824335E+02  8.185167558E+02  1.250141911E+02  0.00000E+00  9.000E+00
       5     1     1     2   501     0  1.311120819E+00 -4.080301292E+00  9.803593892E+00  1.170644479E+01  4.750000000E+00  0.00000E+00  9.000E+00
      -5     1     1     2     0   503  2.566252357E+01 -1.314283712E+01 -1.288881129E+02  1.321590232E+02  4.750000000E+00  0.00000E+00  9.000E+00
      21     1     1     2   502   512 -4.166685965E+00  2.115028284E+01 -5.523101308E+01  5.928878934E+01  0.000000000E+00  0.00000E+00  9.000E+00
#rwgt            1           9   9.0149203699494870E-006           3     2205440           0
</event>
<event>
      6   9999  3.45752E-01  3.07076E+01 -1.00000E+00  1.47186E-01
      21    -1     0     0   501   502  0.000000000E+00  0.000000000E+00  2.019774380E+02  2.019774380E+02  0.000000000E+00  0.00000E+00  9.000E+00
      21    -1     0     0   502   511  0.000000000E+00  0.000000000E+00 -2.389986989E+02  2.389986989E+02  0.000000000E+00  0.00000E+00  9.000E+00
      25     1     1     2     0     0  1.097268037E+02 -9.869847636E+00 -1.521992374E+02  2.256705595E+02  1.250008330E+02  0.00000E+00  9.000E+00
       5     1     1     2   501     0 -6.034620264E+01  3.911062047E+01  1.329990947E+02  1.512700449E+02  4.750000000E+00  0.00000E+00  9.000E+00
      -5     1     1     2     0   503 -2.086656659E+01 -1.784305638E+01  1.244068066E+00  2.789083125E+01  4.750000000E+00  0.00000E+00  9.000E+00
      21     1     1     2   503   511 -2.851403443E+01 -1.139771645E+01 -1.906518618E+01  3.614470119E+01  3.371747881E-07  0.00000E+00  9.000E+00
#rwgt            1           9  0.10558245825061194                3     2207473           0
</event>
<event>
      6   9999 -3.45752E-01  2.28187E+01 -1.00000E+00  1.55959E-01
      21    -1     0     0   501   502  0.000000000E+00  0.000000000E+00  1.362712460E+01  1.362712460E+01  0.000000000E+00  0.00000E+00  9.000E+00
      21    -1     0     0   502   512  0.000000000E+00  0.000000000E+00 -9.519348089E+02  9.519348089E+02  0.000000000E+00  0.00000E+00  9.000E+00
      25     1     1     2     0     0 -1.674266986E+01 -4.205650983E+00 -4.878314937E+02  5.038882813E+02  1.250033170E+02  0.00000E+00  9.000E+00
       5     1     1     2   501     0 -3.572392007E+00 -3.019149283E+00  2.394038922E+00  7.083160976E+00  4.750000000E+00  0.00000E+00  9.000E+00
      -5     1     1     2     0   503 -1.585977256E+00  8.188502480E-01 -2.984760063E+02  2.985191362E+02  4.750000000E+00  0.00000E+00  9.000E+00
      21     1     1     2   503   512  2.190103913E+01  6.405950018E+00 -1.543942231E+02  1.560713550E+02  1.907348633E-06  0.00000E+00  9.000E+00
#rwgt            1           9  -1.9933846960232142E-002           3     2209324           0
</event>
<event>
      6   9999  3.45752E-01  2.04912E+01 -1.00000E+00  1.59410E-01
      21    -1     0     0   502   503  0.000000000E+00  0.000000000E+00  8.904988747E+02  8.904988747E+02  0.000000000E+00  0.00000E+00  9.000E+00
      21    -1     0     0   501   511  0.000000000E+00  0.000000000E+00 -2.143860961E+02  2.143860961E+02  0.000000000E+00  0.00000E+00  9.000E+00
      25     1     1     2     0     0 -3.599194407E+01 -1.509753550E+01  7.378563400E+02  7.493868674E+02  1.250013720E+02  0.00000E+00  9.000E+00
       5     1     1     2   501     0 -4.857817424E+00 -1.254196328E+01 -1.311643011E+02  1.319376201E+02  4.750000000E+00  0.00000E+00  9.000E+00
      -5     1     1     2     0   503  2.159862291E+01  2.061920705E+01  1.435250030E+02  1.466752917E+02  4.750000000E+00  0.00000E+00  9.000E+00
      21     1     1     2   502   511  1.925113858E+01  7.020291731E+00 -7.410426326E+01  7.688519146E+01  9.536743164E-07  0.00000E+00  9.000E+00
#rwgt            1           9  0.10273841525580887                3     2210692           0
</event>
<event>
      6   9999  3.45752E-01  8.92012E+00 -1.00000E+00  1.92578E-01
      21    -1     0     0   501   502  0.000000000E+00  0.000000000E+00  1.057313828E+01  1.057313828E+01  0.000000000E+00  0.00000E+00  9.000E+00
      21    -1     0     0   502   512  0.000000000E+00  0.000000000E+00 -8.225421320E+02  8.225421320E+02  0.000000000E+00  0.00000E+00  9.000E+00
      25     1     1     2     0     0  2.407048340E+00  2.413080602E+01 -5.773798065E+02  5.912549617E+02  1.250075962E+02  0.00000E+00  9.000E+00
       5     1     1     2   501     0  1.162728126E+00  1.740312178E+00  5.093911461E-01  5.215611423E+00  4.750000000E+00  0.00000E+00  9.000E+00
      -5     1     1     2     0   503 -3.212380685E+00 -1.695816092E+01 -1.433226743E+02  1.444363184E+02  4.750000000E+00  0.00000E+00  9.000E+00
      21     1     1     2   503   512 -3.573957805E-01 -8.912957272E+00 -9.177590419E+01  9.220837885E+01  1.348699152E-06  0.00000E+00  9.000E+00
#rwgt            1           9   1.1021220489504007E-003           3     2213550           0
</event>
<event>
      6   9999  3.45752E-01  3.27133E+01 -1.00000E+00  1.45446E-01
      21    -1     0     0   502   503  0.000000000E+00  0.000000000E+00  5.948972783E+01  5.948972783E+01  0.000000000E+00  0.00000E+00  9.000E+00
       2    -1     0     0   501     0  0.000000000E+00  0.000000000E+00 -1.051364339E+03  1.051364339E+03  0.000000000E+00  0.00000E+00  9.000E+00
      25     1     1     2     0     0  3.109421297E+01 -4.505066763E+01 -3.738949129E+01  1.414864996E+02  1.249961710E+02  0.00000E+00  9.000E+00
       5     1     1     2   501     0  7.739001655E+00  4.115043062E+00 -1.847887787E+01  2.099659861E+01  4.750000000E+00  0.00000E+00  9.000E+00
      -5     1     1     2     0   503 -6.133661318E+00  4.188436429E+01 -7.136467338E+01  8.311077475E+01  4.750000000E+00  0.00000E+00  9.000E+00
       2     1     1     2   502     0 -3.269955330E+01 -9.487397162E-01 -8.646415688E+02  8.652601940E+02  0.000000000E+00  0.00000E+00  9.000E+00
#rwgt            1           9   1.7740026609436879                3     2216033           0
</event>
<event>
      6   9999  3.45752E-01  1.85719E+01 -1.00000E+00  1.62706E-01
      21    -1     0     0   501   511  0.000000000E+00  0.000000000E+00  8.316611024E+01  8.316611024E+01  0.000000000E+00  0.00000E+00  9.000E+00
      21    -1     0     0   502   503  0.000000000E+00  0.000000000E+00 -1.420893462E+03  1.420893462E+03  0.000000000E+00  0.00000E+00  9.000E+00
      25     1     1     2     0     0 -1.559592194E+01 -1.953379484E+01 -1.344214810E+03  1.350245932E+03  1.250032722E+02  0.00000E+00  9.000E+00
       5     1     1     2   501     0  4.040708818E+00  6.001342294E+00  5.308485462E+01  5.378575766E+01  4.750000000E+00  0.00000E+00  9.000E+00
      -5     1     1     2     0   503 -2.249267804E+00  1.108673804E+00 -6.996953382E+01  7.017539829E+01  4.750000000E+00  0.00000E+00  9.000E+00
      21     1     1     2   502   511  1.380448092E+01  1.242377875E+01  2.337213810E+01  2.985248417E+01  8.259061849E-07  0.00000E+00  9.000E+00
#rwgt            1           9   1.0694445721620382E-002           3     2218706           0
</event>
<event>
      6   9999  3.45752E-01  4.65008E+00 -1.00000E+00  2.35048E-01
      21    -1     0     0   501   512  0.000000000E+00  0.000000000E+00  8.851451343E+01  8.851451343E+01  0.000000000E+00  0.00000E+00  9.000E+00
      21    -1     0     0   502   503  0.000000000E+00  0.000000000E+00 -1.927804667E+02  1.927804667E+02  0.000000000E+00  0.00000E+00  9.000E+00
      25     1     1     2     0     0 -1.232898367E+01  1.360432274E+00 -1.587846712E+02  2.024648648E+02  1.250023801E+02  0.00000E+00  9.000E+00
       5     1     1     2   501     0 -5.155441122E-01  7.028602983E-01  7.098147327E+00  8.585219496E+00  4.750000000E+00  0.00000E+00  9.000E+00
      -5     1     1     2     0   503  1.307545586E+01  2.581053508E+00 -6.888796893E+00  1.573681689E+01  4.750000000E+00  0.00000E+00  9.000E+00
      21     1     1     2   502   512 -2.309280718E-01 -4.644346081E+00  5.430936749E+01  5.450807899E+01  1.348699152E-06  0.00000E+00  9.000E+00
#rwgt            1           9  0.27009481260186685                3     2221786           0
</event>
<event>
      6   9999  3.45752E-01  3.05467E+01 -1.00000E+00  1.47332E-01
      21    -1     0     0   501   502  0.000000000E+00  0.000000000E+00  4.289237918E+01  4.289237918E+01  0.000000000E+00  0.00000E+00  9.000E+00
      21    -1     0     0   502   511  0.000000000E+00  0.000000000E+00 -3.768217069E+03  3.768217069E+03  0.000000000E+00  0.00000E+00  9.000E+00
      25     1     1     2     0     0 -1.715849700E+02 -1.283909530E+02 -4.518230573E+02  5.154560091E+02  1.250007338E+02  0.00000E+00  9.000E+00
       5     1     1     2   501     0 -8.942020981E-01  7.299827355E-01  4.109260202E+00  6.385999655E+00  4.750000000E+00  0.00000E+00  9.000E+00
      -5     1     1     2     0   503  1.969170129E+02  1.459884149E+02 -2.991615548E+03  3.001645395E+03  4.750000000E+00  0.00000E+00  9.000E+00
      21     1     1     2   503   511 -2.443784081E+01 -1.832744463E+01 -2.859953451E+02  2.876220449E+02  0.000000000E+00  0.00000E+00  9.000E+00
#rwgt            1           9   4.5936127554983136E-004           3     2226093           0
</event>
<event>
      6   9999 -3.45752E-01  1.24382E+01 -1.00000E+00  1.77735E-01
      21    -1     0     0   501   502  0.000000000E+00  0.000000000E+00  4.237703068E+01  4.237703068E+01  0.000000000E+00  0.00000E+00  9.000E+00
      21    -1     0     0   512   503  0.000000000E+00  0.000000000E+00 -3.761816052E+02  3.761816052E+02  0.000000000E+00  0.00000E+00  9.000E+00
      25     1     1     2     0     0 -1.287371186E+01  3.224745882E+01 -3.251879702E+02  3.501118560E+02  1.250018589E+02  0.00000E+00  9.000E+00
       5     1     1     2   501     0  9.288163238E-01  3.409596031E-01  1.290967328E+01  1.379134212E+01  4.750000000E+00  0.00000E+00  9.000E+00
      -5     1     1     2     0   503  1.889914195E+01 -2.227595550E+01  2.267402475E-01  2.959746055E+01  4.750000000E+00  0.00000E+00  9.000E+00
      21     1     1     2   512   502 -6.954246409E+00 -1.031246293E+01 -2.175301791E+01  2.505797723E+01  3.371747881E-07  0.00000E+00  9.000E+00
#rwgt            1           9  -4.4333347973624297                3     2228283           0
</event>
<event>
      6   9999  3.45752E-01  2.66594E+00 -1.00000E+00  2.91047E-01
      21    -1     0     0   511   502  0.000000000E+00  0.000000000E+00  6.500690111E+02  6.500690111E+02  0.000000000E+00  0.00000E+00  9.000E+00
      21    -1     0     0   502   503  0.000000000E+00  0.000000000E+00 -9.406939342E+02  9.406939342E+02  0.000000000E+00  0.00000E+00  9.000E+00
      25     1     1     2     0     0  9.081784863E+00 -9.496720909E+00 -7.639479802E+02  7.742183719E+02  1.249996176E+02  0.00000E+00  9.000E+00
       5     1     1     2   501     0  2.575679901E+00  1.320273254E+00  6.921298692E+00  8.879421378E+00  4.750000000E+00  0.00000E+00  9.000E+00
      -5     1     1     2     0   503 -1.394112323E+01  9.551991426E+00 -1.701774025E+02  1.710804088E+02  4.750000000E+00  0.00000E+00  9.000E+00
      21     1     1     2   511   501  2.283658463E+00 -1.375543772E+00  6.365791609E+02  6.365847432E+02  1.078959322E-05  0.00000E+00  9.000E+00
#rwgt            1           9  0.46258299421506810                3     2231415           0
</event>
<event>
      6   9999  3.45752E-01  3.13292E+01 -1.00000E+00  1.46630E-01
      21    -1     0     0   501   502  0.000000000E+00  0.000000000E+00  2.123730952E+01  2.123730952E+01  0.000000000E+00  0.00000E+00  9.000E+00
      21    -1     0     0   502   512  0.000000000E+00  0.000000000E+00 -1.498559565E+03  1.498559565E+03  0.000000000E+00  0.00000E+00  9.000E+00
      25     1     1     2     0     0  1.382409501E+01  6.261405928E+01 -3.409538822E+02  3.687654293E+02  1.250070640E+02  0.00000E+00  9.000E+00
       5     1     1     2   501     0 -1.828024986E+00 -2.931440555E+00  1.765251269E+00  6.132995281E+00  4.750000000E+00  0.00000E+00  9.000E+00
      -5     1     1     2     0   503 -2.022185930E+01 -8.991265644E+01 -7.951368832E+02  8.004738815E+02  4.750000000E+00  0.00000E+00  9.000E+00
      21     1     1     2   503   512  8.225789277E+00  3.023003772E+01 -3.429967418E+02  3.444245689E+02  3.814697266E-06  0.00000E+00  9.000E+00
#rwgt            1           9   5.1642794735831709E-003           3     2238040           0
</event>
<event>
      6   9999  3.45752E-01  7.40280E+00 -1.00000E+00  2.02090E-01
      21    -1     0     0   501   511  0.000000000E+00  0.000000000E+00  7.321662606E+01  7.321662606E+01  0.000000000E+00  0.00000E+00  9.000E+00
      21    -1     0     0   502   503  0.000000000E+00  0.000000000E+00 -1.835623944E+02  1.835623944E+02  0.000000000E+00  0.00000E+00  9.000E+00
      25     1     1     2     0     0 -2.132499749E+00  9.493314690E+00 -1.547090120E+02  1.991361294E+02  1.250025962E+02  0.00000E+00  9.000E+00
       5     1     1     2   501     0 -2.935685936E-01 -1.584169859E+00  4.326088196E+01  4.355068524E+01  4.750000000E+00  0.00000E+00  9.000E+00
      -5     1     1     2     0   503  2.199435041E+00 -5.098112440E-01 -2.541537154E+00  5.841175661E+00  4.750000000E+00  0.00000E+00  9.000E+00
      21     1     1     2   502   511  2.266333020E-01 -7.399333588E+00  3.643898843E+00  8.251030177E+00  1.264405455E-07  0.00000E+00  9.000E+00
#rwgt            1           9   7.0527398536142649E-002           3     2239437           0
</event>
<event>
      6   9999  3.45752E-01  1.58021E+01 -1.00000E+00  1.68434E-01
      21    -1     0     0   501   502  0.000000000E+00  0.000000000E+00  1.498856447E+01  1.498856447E+01  0.000000000E+00  0.00000E+00  9.000E+00
      21    -1     0     0   512   503  0.000000000E+00  0.000000000E+00 -8.943768950E+02  8.943768950E+02  0.000000000E+00  0.00000E+00  9.000E+00
      25     1     1     2     0     0 -2.041855849E+01  1.867549064E+00 -6.459631754E+02  6.582658498E+02  1.250003993E+02  0.00000E+00  9.000E+00
       5     1     1     2   501     0  3.467555413E+00 -4.325893148E+00  5.301956290E+00  9.022778539E+00  4.750000000E+00  0.00000E+00  9.000E+00
      -5     1     1     2     0   503  1.982028701E+01 -1.308105874E+01 -1.531416755E+02  1.550448101E+02  4.750000000E+00  0.00000E+00  9.000E+00
      21     1     1     2   512   502 -2.869283933E+00  1.553940282E+01 -8.558543597E+01  8.703202101E+01  9.536743164E-07  0.00000E+00  9.000E+00
#rwgt            1           9   3.7823049875838365E-003           3     2242473           0
</event>
<event>
      6   9999 -3.45752E-01  6.05629E+00 -1.00000E+00  2.13495E-01
      21    -1     0     0   511   502  0.000000000E+00  0.000000000E+00  2.678295966E+01  2.678295966E+01  0.000000000E+00  0.00000E+00  9.000E+00
      21    -1     0     0   502   503  0.000000000E+00  0.000000000E+00 -7.679708340E+02  7.679708340E+02  0.000000000E+00  0.00000E+00  9.000E+00
      25     1     1     2     0     0  1.416557492E+00 -1.093529558E+00 -7.413350437E+02  7.518005480E+02  1.249928578E+02  0.00000E+00  9.000E+00
       5     1     1     2   501     0 -2.606333980E+00  1.091747353E+00 -4.487240822E-01  5.545154858E+00  4.750000000E+00  0.00000E+00  9.000E+00
      -5     1     1     2     0   503 -4.272440617E+00 -2.614094486E+00 -1.724075278E+01  1.857130301E+01  4.750000000E+00  0.00000E+00  9.000E+00
      21     1     1     2   511   501  5.462217105E+00  2.615876691E+00  1.783664622E+01  1.883678781E+01  6.743495762E-07  0.00000E+00  9.000E+00
#rwgt            1           9  -6.1322642030152397E-005           3     2244222           0
</event>
<event>
      6   9999 -3.45752E-01  5.18989E+01 -1.00000E+00  1.33927E-01
      21    -1     0     0   502   503  0.000000000E+00  0.000000000E+00  9.379300392E+01  9.379300392E+01  0.000000000E+00  0.00000E+00  9.000E+00
      21    -1     0     0   501   512  0.000000000E+00  0.000000000E+00 -1.802222958E+03  1.802222958E+03  0.000000000E+00  0.00000E+00  9.000E+00
      25     1     1     2     0     0  1.253620647E+02  3.309896668E+02 -4.376287736E+02  5.765536939E+02  1.250016470E+02  0.00000E+00  9.000E+00
       5     1     1     2   501     0 -1.603631061E+01 -6.388506485E+01 -2.590253825E+02  2.673110099E+02  4.750000000E+00  0.00000E+00  9.000E+00
      -5     1     1     2     0   503 -9.024025326E+01 -2.188423684E+02 -8.267469637E+02  8.599816219E+02  4.750000000E+00  0.00000E+00  9.000E+00
      21     1     1     2   502   512 -1.908550082E+01 -4.826223355E+01 -1.850288343E+02  1.921696361E+02  2.697398305E-06  0.00000E+00  9.000E+00
#rwgt            1           9  -9.9873066459019218E-003           3     2247459           0
</event>
<event>
      6   9999 -3.45752E-01  1.05143E+01 -1.00000E+00  1.84928E-01
      21    -1     0     0   501   502  0.000000000E+00  0.000000000E+00  9.303460370E+00  9.303460370E+00  0.000000000E+00  0.00000E+00  9.000E+00
      21    -1     0     0   511   503  0.000000000E+00  0.000000000E+00 -8.795613092E+02  8.795613092E+02  0.000000000E+00  0.00000E+00  9.000E+00
      25     1     1     2     0     0 -8.294926173E+00 -1.282077080E+01 -7.591647569E+02  7.695383761E+02  1.250000249E+02  0.00000E+00  9.000E+00
       5     1     1     2   501     0  1.409035825E-01 -1.222757723E+00  9.102469105E-01  4.990595126E+00  4.750000000E+00  0.00000E+00  9.000E+00
      -5     1     1     2     0   503  2.035381124E+00  5.492983204E+00 -1.525117499E+01  1.701400833E+01  4.750000000E+00  0.00000E+00  9.000E+00
      21     1     1     2   511   502  6.118641467E+00  8.550545315E+00 -9.675216386E+01  9.732179001E+01  0.000000000E+00  0.00000E+00  9.000E+00
#rwgt            1           9  -7.6839536965764808E-004           3     2249375           0
</event>
<event>
      6   9999  3.45752E-01  7.93094E+00 -1.00000E+00  1.98462E-01
      21    -1     0     0   501   512  0.000000000E+00  0.000000000E+00  2.239109247E+00  2.239109247E+00  0.000000000E+00  0.00000E+00  9.000E+00
      21    -1     0     0   502   503  0.000000000E+00  0.000000000E+00 -4.126785212E+03  4.126785212E+03  0.000000000E+00  0.00000E+00  9.000E+00
      25     1     1     2     0     0 -2.091504568E+00 -7.059555839E+00 -3.718739670E+03  3.720847541E+03  1.250099007E+02  0.00000E+00  9.000E+00
       5     1     1     2   501     0  4.054412014E-01  2.087691811E-01 -1.685622766E+02  1.686298062E+02  4.750000000E+00  0.00000E+00  9.000E+00
      -5     1     1     2     0   503  2.159022157E-01 -9.427014955E-01 -2.243945434E+02  2.244468955E+02  4.750000000E+00  0.00000E+00  9.000E+00
      21     1     1     2   502   512  1.470161151E+00  7.793488153E+00 -1.284961204E+01  1.510007818E+01  1.118282261E-06  0.00000E+00  9.000E+00
#rwgt            1           9   9.0114631885098440E-003           3     2251417           0
</event>
<event>
      6   9999  3.45752E-01  6.71776E+00 -1.00000E+00  2.07443E-01
      21    -1     0     0   501   502  0.000000000E+00  0.000000000E+00  1.158123917E+01  1.158123917E+01  0.000000000E+00  0.00000E+00  9.000E+00
      21    -1     0     0   511   503  0.000000000E+00  0.000000000E+00 -1.157730996E+03  1.157730996E+03  0.000000000E+00  0.00000E+00  9.000E+00
      25     1     1     2     0     0  4.739681467E-01  2.186952606E+00 -8.030987911E+02  8.127708934E+02  1.249953977E+02  0.00000E+00  9.000E+00
       5     1     1     2   501     0 -4.086217532E+00  1.603524330E+00  4.814130087E+00  8.062680230E+00  4.750000000E+00  0.00000E+00  9.000E+00
      -5     1     1     2     0   503 -1.050885159E+00  1.045168103E+00 -2.247499324E+01  2.301922147E+01  4.750000000E+00  0.00000E+00  9.000E+00
      21     1     1     2   511   502  4.663134544E+00 -4.835645039E+00 -3.253901028E+02  3.254594403E+02  5.394796609E-06  0.00000E+00  9.000E+00
#rwgt            1           9   9.9534688823445006E-005           3     2253987           0
</event>
<event>
      6   9999  3.45752E-01  1.04179E+01 -1.00000E+00  1.85340E-01
      21    -1     0     0   501   502  0.000000000E+00  0.000000000E+00  5.903608496E+00  5.903608496E+00  0.000000000E+00  0.00000E+00  9.000E+00
      21    -1     0     0   512   503  0.000000000E+00  0.000000000E+00 -1.770141347E+03  1.770141347E+03  0.000000000E+00  0.00000E+00  9.000E+00
      25     1     1     2     0     0 -8.234792324E+00  3.504034580E+00 -1.441094318E+03  1.446533065E+03  1.249999342E+02  0.00000E+00  9.000E+00
       5     1     1     2   501     0  9.442887004E-01  1.887246291E+00 -3.249459790E-01  5.207827724E+00  4.750000000E+00  0.00000E+00  9.000E+00
      -5     1     1     2     0   503  1.259423884E+01  3.575474146E+00 -7.598071442E+01  7.724655546E+01  4.750000000E+00  0.00000E+00  9.000E+00
      21     1     1     2   512   502 -5.303735213E+00 -8.966755018E+00 -2.468377598E+02  2.470575074E+02  2.697398305E-06  0.00000E+00  9.000E+00
#rwgt            1           9  0.73133668872808333                3     2257480           0
</event>
<event>
      6   9999  3.45752E-01  9.94702E+00 -1.00000E+00  1.87437E-01
      21    -1     0     0   501   511  0.000000000E+00  0.000000000E+00  6.452201328E+01  6.452201328E+01  0.000000000E+00  0.00000E+00  9.000E+00
      21    -1     0     0   502   503  0.000000000E+00  0.000000000E+00 -1.176874063E+02  1.176874063E+02  0.000000000E+00  0.00000E+00  9.000E+00
      25     1     1     2     0     0 -9.065999072E-01  1.042838548E+01 -7.708848138E+01  1.472313891E+02  1.249994993E+02  0.00000E+00  9.000E+00
       5     1     1     2   501     0  3.100851079E-01  5.383163589E-01  1.587223970E+00  5.046554984E+00  4.750000000E+00  0.00000E+00  9.000E+00
      -5     1     1     2     0   503  5.537147922E+00 -2.333432779E+00  3.074855210E+00  8.253614372E+00  4.750000000E+00  0.00000E+00  9.000E+00
      21     1     1     2   502   511 -4.940633123E+00 -8.633269064E+00  1.926100917E+01  2.167786116E+01  4.129530925E-07  0.00000E+00  9.000E+00
#rwgt            1           9   1.4724175247543480E-003           3     2260617           0
</event>
<event>
      6   9999  3.45752E-01  1.83526E+01 -1.00000E+00  1.63113E-01
      21    -1     0     0   501   502  0.000000000E+00  0.000000000E+00  5.048420942E+01  5.048420942E+01  0.000000000E+00  0.00000E+00  9.000E+00
      21    -1     0     0   512   503  0.000000000E+00  0.000000000E+00 -1.975598514E+03  1.975598514E+03  0.000000000E+00  0.00000E+00  9.000E+00
      25     1     1     2     0     0  5.089094751E+01  6.778465849E+01 -9.772693880E+02  9.888704547E+02  1.249986838E+02  0.00000E+00  9.000E+00
       5     1     1     2   501     0 -1.740937021E+00 -4.808633593E+00  3.991597195E+01  4.052161319E+01  4.750000000E+00  0.00000E+00  9.000E+00
      -5     1     1     2     0   503 -6.120268363E+01 -4.913588897E+01 -3.524389530E+02  3.611037000E+02  4.750000000E+00  0.00000E+00  9.000E+00
      21     1     1     2   512   502  1.205267314E+01 -1.384013593E+01 -6.353219358E+02  6.355869558E+02  0.000000000E+00  0.00000E+00  9.000E+00
#rwgt            1           9   3.0100879260864410E-004           3     2263143           0
</event>
<event>
      6   9999  3.45752E-01  1.59441E+01 -1.00000E+00  1.68106E-01
      21    -1     0     0   501   511  0.000000000E+00  0.000000000E+00  1.788493718E+02  1.788493718E+02  0.000000000E+00  0.00000E+00  9.000E+00
      21    -1     0     0   502   503  0.000000000E+00  0.000000000E+00 -4.356227836E+02  4.356227836E+02  0.000000000E+00  0.00000E+00  9.000E+00
      25     1     1     2     0     0 -1.978316820E+01 -2.961667225E-01 -3.220861568E+02  3.460632376E+02  1.250152413E+02  0.00000E+00  9.000E+00
       5     1     1     2   501     0 -6.315987040E-01  5.549163893E+00  8.618670739E+00  1.131530477E+01  4.750000000E+00  0.00000E+00  9.000E+00
      -5     1     1     2     0   503  1.991018716E+01  1.068316507E+01 -9.845565675E+01  1.011267740E+02  4.750000000E+00  0.00000E+00  9.000E+00
      21     1     1     2   502   511  5.045797430E-01 -1.593616224E+01  1.551497310E+02  1.559668391E+02  2.697398305E-06  0.00000E+00  9.000E+00
#rwgt            1           9   3.4754008005378547                3     2266043           0
</event>
<event>
      6   9999  3.45752E-01  1.77552E+00 -1.00000E+00  3.54265E-01
      21    -1     0     0   501   512  0.000000000E+00  0.000000000E+00  1.341603203E+01  1.341603203E+01  0.000000000E+00  0.00000E+00  9.000E+00
      21    -1     0     0   502   503  0.000000000E+00  0.000000000E+00 -8.459092542E+02  8.459092542E+02  0.000000000E+00  0.00000E+00  9.000E+00
      25     1     1     2     0     0 -1.944941084E+00 -6.013087019E+00 -7.307855891E+02  7.414261290E+02  1.250007501E+02  0.00000E+00  9.000E+00
       5     1     1     2   501     0  2.378879216E+00  4.260474523E-01  6.870259507E+00  8.695030100E+00  4.750000000E+00  0.00000E+00  9.000E+00
      -5     1     1     2     0   503  1.007204084E+00  6.624135237E+00 -1.034888121E+02  1.038142108E+02  4.750000000E+00  0.00000E+00  9.000E+00
      21     1     1     2   502   512 -1.441142216E+00 -1.037095671E+00 -5.089080461E+00  5.389916350E+00  1.032382731E-07  0.00000E+00  9.000E+00
#rwgt            1           9   4.3756122314795857E-005           3     2267725           0
</event>
<event>
      6   9999  3.45752E-01  1.15561E+01 -1.00000E+00  1.80811E-01
      21    -1     0     0   501   511  0.000000000E+00  0.000000000E+00  1.661542217E+03  1.661542217E+03  0.000000000E+00  0.00000E+00  9.000E+00
      21    -1     0     0   502   503  0.000000000E+00  0.000000000E+00 -1.042906800E+03  1.042906800E+03  0.000000000E+00  0.00000E+00  9.000E+00
      25     1     1     2     0     0  4.274710904E+01  4.244940822E+01 -6.863900480E+02  7.002734389E+02  1.249892946E+02  0.00000E+00  9.000E+00
       5     1     1     2   501     0 -2.865640072E+00 -3.511464598E+00  1.345661127E+01  1.497281415E+01  4.750000000E+00  0.00000E+00  9.000E+00
      -5     1     1     2     0   503 -3.327556101E+01 -4.841984261E+01 -3.463063617E+02  3.512867814E+02  4.750000000E+00  0.00000E+00  9.000E+00
      21     1     1     2   502   511 -6.605907967E+00  9.481898983E+00  1.637875216E+03  1.637915983E+03  0.000000000E+00  0.00000E+00  9.000E+00
#rwgt            1           9   2.8135219877099056E-005           3     2276329           0
</event>
<event>
      6   9999 -3.45752E-01  5.90670E+00 -1.00000E+00  2.15010E-01
      21    -1     0     0   501   502  0.000000000E+00  0.000000000E+00  3.582236759E+01  3.582236759E+01  0.000000000E+00  0.00000E+00  9.000E+00
      21    -1     0     0   502   512  0.000000000E+00  0.000000000E+00 -1.261154881E+03  1.261154881E+03  0.000000000E+00  0.00000E+00  9.000E+00
      25     1     1     2     0     0 -4.192388422E+01 -1.489338136E+01 -1.035416725E+03  1.043883432E+03  1.250015958E+02  0.00000E+00  9.000E+00
       5     1     1     2   501     0 -4.863563713E+00 -5.106632985E+00  2.342966670E+01  2.492476147E+01  4.750000000E+00  0.00000E+00  9.000E+00
      -5     1     1     2     0   503  4.089369707E+01  1.960906029E+01 -6.333790160E+01  7.804525601E+01  4.750000000E+00  0.00000E+00  9.000E+00
      21     1     1     2   503   512  5.893750857E+00  3.909540586E-01 -1.500075532E+02  1.501237994E+02  1.907348633E-06  0.00000E+00  9.000E+00
#rwgt            1           9  -3.9187969269553383E-004           3     2279062           0
</event>
<event>
      6   9999  3.45752E-01  4.43491E+00 -1.00000E+00  2.38923E-01
      21    -1     0     0   501   502  0.000000000E+00  0.000000000E+00  3.302789918E+03  3.302789918E+03  0.000000000E+00  0.00000E+00  9.000E+00
      21    -1     0     0   502   511  0.000000000E+00  0.000000000E+00 -2.804727278E+01  2.804727278E+01  0.000000000E+00  0.00000E+00  9.000E+00
      25     1     1     2     0     0  5.382638679E+00  6.146423641E+00  2.207643626E+03  2.211194565E+03  1.249970976E+02  0.00000E+00  9.000E+00
       5     1     1     2   501     0  6.394530958E-01  1.072439914E-03  9.820845823E+02  9.820962774E+02  4.750000000E+00  0.00000E+00  9.000E+00
      -5     1     1     2     0   503 -1.587181488E+00 -6.145350620E+00  1.109507451E+02  1.112336047E+02  4.750000000E+00  0.00000E+00  9.000E+00
      21     1     1     2   503   511 -4.434910287E+00 -2.145461364E-03 -2.593630770E+01  2.631274389E+01  1.877309769E-06  0.00000E+00  9.000E+00
#rwgt            1           9   1.0255301722282692E-003           3     2283674           0
</event>
<event>
      6   9999  3.45752E-01  8.57042E+00 -1.00000E+00  1.94539E-01
      21    -1     0     0   501   502  0.000000000E+00  0.000000000E+00  5.086270408E+00  5.086270408E+00  0.000000000E+00  0.00000E+00  9.000E+00
       2    -1     0     0   502     0  0.000000000E+00  0.000000000E+00 -2.422175734E+03  2.422175734E+03  0.000000000E+00  0.00000E+00  9.000E+00
      25     1     1     2     0     0 -6.703233187E+00 -7.314975673E+00 -9.656731506E+02  9.737804277E+02  1.250009815E+02  0.00000E+00  9.000E+00
       5     1     1     2   501     0 -1.506486711E-01  2.309816101E-01 -1.148287400E+01  1.242959946E+01  4.750000000E+00  0.00000E+00  9.000E+00
      -5     1     1     2     0   503 -1.336312652E+00  9.608427208E+00 -5.287136589E+01  5.396342684E+01  4.750000000E+00  0.00000E+00  9.000E+00
       2     1     1     2   503     0  8.190194510E+00 -2.524433145E+00 -1.387062073E+03  1.387088550E+03  2.157918644E-05  0.00000E+00  9.000E+00
#rwgt            1           9   9.9713109867513144E-005           3     2287969           0
</event>
<event>
      6   9999  3.45752E-01  3.53094E+00 -1.00000E+00  2.59623E-01
      21    -1     0     0   501   502  0.000000000E+00  0.000000000E+00  1.466479619E+01  1.466479619E+01  0.000000000E+00  0.00000E+00  9.000E+00
      21    -1     0     0   511   503  0.000000000E+00  0.000000000E+00 -9.539085014E+02  9.539085014E+02  0.000000000E+00  0.00000E+00  9.000E+00
      25     1     1     2     0     0 -2.330446489E+01  3.795517823E+01 -5.272645980E+02  5.437062326E+02  1.249992698E+02  0.00000E+00  9.000E+00
       5     1     1     2   501     0 -2.357696827E+00 -9.209606899E-02  3.746903184E+00  6.493766202E+00  4.750000000E+00  0.00000E+00  9.000E+00
      -5     1     1     2     0   503  2.360580872E+01 -3.499273095E+01 -3.527278213E+02  3.552762359E+02  4.750000000E+00  0.00000E+00  9.000E+00
      21     1     1     2   511   502  2.056352995E+00 -2.870351214E+00 -6.299818918E+01  6.309706288E+01  0.000000000E+00  0.00000E+00  9.000E+00
#rwgt            1           9   2.4323337145264897E-004           3     2290294           0
</event>
<event>
      6   9999  3.45752E-01  1.36304E+01 -1.00000E+00  1.74056E-01
      21    -1     0     0   501   502  0.000000000E+00  0.000000000E+00  3.613753276E+02  3.613753276E+02  0.000000000E+00  0.00000E+00  9.000E+00
      21    -1     0     0   502   512  0.000000000E+00  0.000000000E+00 -6.360087661E+01  6.360087661E+01  0.000000000E+00  0.00000E+00  9.000E+00
      25     1     1     2     0     0 -6.056423790E+01  1.410653097E+01  4.582050562E+01  1.469386733E+02  1.249977353E+02  0.00000E+00  9.000E+00
       5     1     1     2   501     0  6.205678696E-02 -5.277970020E-01  1.881307349E+02  1.881914407E+02  4.750000000E+00  0.00000E+00  9.000E+00
      -5     1     1     2     0   503  4.749589474E+01 -9.501452214E+00  5.574622571E+01  7.400230936E+01  4.750000000E+00  0.00000E+00  9.000E+00
      21     1     1     2   503   512  1.300628637E+01 -4.077281752E+00  8.076984760E+00  1.584378094E+01  2.384185791E-07  0.00000E+00  9.000E+00
#rwgt            1           9   2.9141289761726163                3     2296040           0
</event>
<event>
      6   9999 -3.45752E-01  1.05942E+01 -1.00000E+00  1.84591E-01
      21    -1     0     0   501   502  0.000000000E+00  0.000000000E+00  9.834979865E+01  9.834979865E+01  0.000000000E+00  0.00000E+00  9.000E+00
      21    -1     0     0   511   503  0.000000000E+00  0.000000000E+00 -2.066157641E+02  2.066157641E+02  0.000000000E+00  0.00000E+00  9.000E+00
      25     1     1     2     0     0  1.485372270E+01  1.164984737E+01 -1.619200119E+02  2.054194689E+02  1.249908634E+02  0.00000E+00  9.000E+00
       5     1     1     2   501     0 -1.661649126E+00  2.391624932E+00  7.048113492E+01  7.070101716E+01  4.750000000E+00  0.00000E+00  9.000E+00
      -5     1     1     2     0   503 -3.632782474E+00 -9.474483797E+00 -3.332957245E+00  1.168905709E+01  4.750000000E+00  0.00000E+00  9.000E+00
      21     1     1     2   511   502 -9.559291103E+00 -4.566988504E+00 -1.349413129E+01  1.715601963E+01  1.685873940E-07  0.00000E+00  9.000E+00
#rwgt            1           9  -8.1787911621180626E-002           3     2298549           0
</event>
<event>
      6   9999  3.45752E-01  1.14105E+01 -1.00000E+00  1.81353E-01
      21    -1     0     0   501   502  0.000000000E+00  0.000000000E+00  3.081541291E+03  3.081541291E+03  0.000000000E+00  0.00000E+00  9.000E+00
      21    -1     0     0   502   512  0.000000000E+00  0.000000000E+00 -2.016505344E+01  2.016505344E+01  0.000000000E+00  0.00000E+00  9.000E+00
      25     1     1     2     0     0 -1.840751572E+01  1.943230700E+00  2.084490546E+02  2.437614515E+02  1.250040963E+02  0.00000E+00  9.000E+00
       5     1     1     2   501     0  3.156049773E+00  7.487838426E+00  2.788932086E+03  2.788947968E+03  4.750000000E+00  0.00000E+00  9.000E+00
      -5     1     1     2     0   503  3.856352812E+00 -8.839537030E+00  4.893720196E+01  5.010410270E+01  4.750000000E+00  0.00000E+00  9.000E+00
      21     1     1     2   503   512  1.139511314E+01 -5.915320965E-01  1.505789537E+01  1.889282209E+01  2.920019320E-07  0.00000E+00  9.000E+00
#rwgt            1           9   7.5973645802249971E-003           3     2301458           0
</event>
<event>
      6   9999  3.45752E-01  6.17553E+00 -1.00000E+00  2.12328E-01
      21    -1     0     0   511   502  0.000000000E+00  0.000000000E+00  2.237525637E+02  2.237525637E+02  0.000000000E+00  0.00000E+00  9.000E+00
      21    -1     0     0   502   503  0.000000000E+00  0.000000000E+00 -1.772433744E+03  1.772433744E+03  0.000000000E+00  0.00000E+00  9.000E+00
      25     1     1     2     0     0 -3.694964796E+00  2.056709727E+00 -1.655941079E+03  1.660657762E+03  1.250018501E+02  0.00000E+00  9.000E+00
       5     1     1     2   501     0  7.645188192E-01  1.204748983E+00 -7.630227801E+00  9.100482704E+00  4.750000000E+00  0.00000E+00  9.000E+00
      -5     1     1     2     0   503  3.123985701E+00  2.911040959E+00 -1.056292746E+02  1.058222075E+02  4.750000000E+00  0.00000E+00  9.000E+00
      21     1     1     2   511   501 -1.935397244E-01 -6.172499669E+00  2.205194011E+02  2.206058555E+02  5.394796609E-06  0.00000E+00  9.000E+00
#rwgt            1           9   2.6930017387392185E-002           3     2305300           0
</event>
<event>
      6   9999  3.45752E-01  6.98631E+00 -1.00000E+00  2.05247E-01
      21    -1     0     0   501   512  0.000000000E+00  0.000000000E+00  6.822977716E+01  6.822977716E+01  0.000000000E+00  0.00000E+00  9.000E+00
      21    -1     0     0   502   503  0.000000000E+00  0.000000000E+00 -1.504226086E+03  1.504226086E+03  0.000000000E+00  0.00000E+00  9.000E+00
      25     1     1     2     0     0  4.902264563E+01  1.262798420E+02 -1.702489190E+02  2.509100229E+02  1.249853066E+02  0.00000E+00  9.000E+00
       5     1     1     2   501     0  5.518741084E+00  2.777669118E+00  2.225150807E+01  2.357676951E+01  4.750000000E+00  0.00000E+00  9.000E+00
      -5     1     1     2     0   503 -4.827305080E+01 -1.321423839E+02 -1.278239395E+03  1.285966722E+03  4.750000000E+00  0.00000E+00  9.000E+00
      21     1     1     2   502   512 -6.268335912E+00  3.084872818E+00 -9.759502643E+00  1.200234841E+01  1.192092896E-07  0.00000E+00  9.000E+00
#rwgt            1           9   1.0212307317321075E-004           3     2308348           0
</event>
<event>
      6   9999  3.45752E-01  5.16305E+00 -1.00000E+00  2.23569E-01
      21    -1     0     0   511   502  0.000000000E+00  0.000000000E+00  4.773775179E+02  4.773775179E+02  0.000000000E+00  0.00000E+00  9.000E+00
      21    -1     0     0   502   503  0.000000000E+00  0.000000000E+00 -1.151402903E+03  1.151402903E+03  0.000000000E+00  0.00000E+00  9.000E+00
      25     1     1     2     0     0 -1.069335577E+01 -2.215354840E+01 -5.074422335E+02  5.231903294E+02  1.250014917E+02  0.00000E+00  9.000E+00
       5     1     1     2   501     0  6.918406927E+00 -2.956703838E+00  2.211037942E+01  2.383354422E+01  4.750000000E+00  0.00000E+00  9.000E+00
      -5     1     1     2     0   503  3.582017874E+00  1.995080958E+01 -6.350395247E+02  6.353806938E+02  4.750000000E+00  0.00000E+00  9.000E+00
      21     1     1     2   511   501  1.929309648E-01  5.159442654E+00  4.463459933E+02  4.463758537E+02  5.394796609E-06  0.00000E+00  9.000E+00
#rwgt            1           9   4.3506406923588328E-004           3     2314149           0
</event>
<event>
      6   9999  3.45752E-01  1.30918E+01 -1.00000E+00  1.75657E-01
      21    -1     0     0   501   512  0.000000000E+00  0.000000000E+00  5.798063391E+00  5.798063391E+00  0.000000000E+00  0.00000E+00  9.000E+00
      21    -1     0     0   502   503  0.000000000E+00  0.000000000E+00 -4.016256184E+03  4.016256184E+03  0.000000000E+00  0.00000E+00  9.000E+00
      25     1     1     2     0     0  5.998660884E+00 -2.365750869E+00 -3.833293680E+03  3.835336630E+03  1.250001799E+02  0.00000E+00  9.000E+00
       5     1     1     2   501     0  3.292707821E+00 -7.041058714E+00 -8.896257968E+00  1.273280560E+01  4.750000000E+00  0.00000E+00  9.000E+00
      -5     1     1     2     0   503 -2.482715857E+00 -1.775190003E+00 -1.558114145E+02  1.559136766E+02  4.750000000E+00  0.00000E+00  9.000E+00
      21     1     1     2   502   512 -6.808652847E+00  1.118199959E+01 -1.245676842E+01  1.807113577E+01  2.008950656E-06  0.00000E+00  9.000E+00
#rwgt            1           9   1.4164916039424084E-004           3     2319392           0
</event>
<event>
      6   9999  3.45752E-01  5.47084E+01 -1.00000E+00  1.32729E-01
      21    -1     0     0   501   502  0.000000000E+00  0.000000000E+00  9.680219915E+02  9.680219915E+02  0.000000000E+00  0.00000E+00  9.000E+00
      21    -1     0     0   502   511  0.000000000E+00  0.000000000E+00 -2.160530359E+02  2.160530359E+02  0.000000000E+00  0.00000E+00  9.000E+00
      25     1     1     2     0     0 -2.360925383E+02 -9.149139998E+01  1.232691139E+02  3.081024131E+02  1.249858375E+02  0.00000E+00  9.000E+00
       5     1     1     2   501     0  1.820275881E+02 -4.350540536E+01  6.408314531E+02  6.676183618E+02  4.750000000E+00  0.00000E+00  9.000E+00
      -5     1     1     2     0   503 -4.280565541E-02  1.430811955E+02  2.055015282E+01  1.446274580E+02  4.750000000E+00  0.00000E+00  9.000E+00
      21     1     1     2   503   511  5.410775589E+01 -8.084390161E+00 -3.268176427E+01  6.372679442E+01  1.066240300E-06  0.00000E+00  9.000E+00
#rwgt            1           9   128.71537762898501                3     2321076           0
</event>
<event>
      6   9999  3.45752E-01  1.48632E+00 -1.00000E+00  4.01890E-01
      21    -1     0     0   512   502  0.000000000E+00  0.000000000E+00  2.249511891E+02  2.249511891E+02  0.000000000E+00  0.00000E+00  9.000E+00
      21    -1     0     0   502   503  0.000000000E+00  0.000000000E+00 -6.473391207E+02  6.473391207E+02  0.000000000E+00  0.00000E+00  9.000E+00
      25     1     1     2     0     0  9.074631927E+00  7.449223680E+00 -4.633112147E+02  4.800198232E+02  1.249956366E+02  0.00000E+00  9.000E+00
       5     1     1     2   501     0 -1.349014308E+00  9.387426791E-01  4.236632545E+00  6.573631625E+00  4.750000000E+00  0.00000E+00  9.000E+00
      -5     1     1     2     0   503 -6.240233584E+00 -8.335322159E+00 -1.743148362E+02  1.746901334E+02  4.750000000E+00  0.00000E+00  9.000E+00
      21     1     1     2   512   501 -1.485384035E+00 -5.264420071E-02  2.110014867E+02  2.110067215E+02  2.697398305E-06  0.00000E+00  9.000E+00
#rwgt            1           9   3.5235023005273877E-003           3     2322632           0
</event>
<event>
      6   9999  3.45752E-01  1.38589E+01 -1.00000E+00  1.73404E-01
      21    -1     0     0   511   502  0.000000000E+00  0.000000000E+00  3.433385976E+01  3.433385976E+01  0.000000000E+00  0.00000E+00  9.000E+00
      21    -1     0     0   502   503  0.000000000E+00  0.000000000E+00 -7.244747215E+02  7.244747215E+02  0.000000000E+00  0.00000E+00  9.000E+00
      25     1     1     2     0     0 -2.227379490E+01  8.422710515E+00 -6.322352721E+02  6.449135839E+02  1.250001099E+02  0.00000E+00  9.000E+00
       5     1     1     2   501     0 -7.963493593E-01  2.584923198E-01 -6.542679895E+00  8.128354741E+00  4.750000000E+00  0.00000E+00  9.000E+00
      -5     1     1     2     0   503  1.148093647E+01 -1.081249490E+00 -7.625951115E+01  7.727261186E+01  4.750000000E+00  0.00000E+00  9.000E+00
      21     1     1     2   511   501  1.158920778E+01 -7.599953345E+00  2.489660138E+01  2.849403074E+01  1.545128989E-06  0.00000E+00  9.000E+00
#rwgt            1           9   8.9566707443232782E-005           3     2332680           0
</event>
<event>
      6   9999  3.45752E-01  7.22361E+00 -1.00000E+00  2.03413E-01
      21    -1     0     0   512   502  0.000000000E+00  0.000000000E+00  2.544492235E+01  2.544492235E+01  0.000000000E+00  0.00000E+00  9.000E+00
      21    -1     0     0   502   503  0.000000000E+00  0.000000000E+00 -1.033438961E+03  1.033438961E+03  0.000000000E+00  0.00000E+00  9.000E+00
      25     1     1     2     0     0 -2.993279875E+01 -2.523814394E+01 -6.044305462E+02  6.184613097E+02  1.250006801E+02  0.00000E+00  9.000E+00
       5     1     1     2   501     0 -3.682527218E+00  5.143723279E+00  1.382641089E+01  1.592956478E+01  4.750000000E+00  0.00000E+00  9.000E+00
      -5     1     1     2     0   503  2.855160450E+01  2.524604317E+01 -4.151603840E+02  4.169331646E+02  4.750000000E+00  0.00000E+00  9.000E+00
      21     1     1     2   512   501  5.063721472E+00 -5.151622515E+00 -2.229519378E+00  7.559844333E+00  1.074538015E-07  0.00000E+00  9.000E+00
#rwgt            1           9   1.9495893370487288E-003           3     2334313           0
</event>
<event>
      6   9999  3.45752E-01  1.62096E+01 -1.00000E+00  1.67503E-01
      21    -1     0     0   501   502  0.000000000E+00  0.000000000E+00  1.330116022E+01  1.330116022E+01  0.000000000E+00  0.00000E+00  9.000E+00
      21    -1     0     0   502   511  0.000000000E+00  0.000000000E+00 -9.459614079E+02  9.459614079E+02  0.000000000E+00  0.00000E+00  9.000E+00
      25     1     1     2     0     0 -4.136968859E+01 -1.040234354E+01 -5.388535639E+02  5.548049580E+02  1.250028730E+02  0.00000E+00  9.000E+00
       5     1     1     2   501     0  2.084109630E-01  1.636923872E+00  1.292487039E+00  5.191914641E+00  4.750000000E+00  0.00000E+00  9.000E+00
      -5     1     1     2     0   503  3.238173736E+01  2.239149725E+01 -3.192775422E+02  3.217307376E+02  4.750000000E+00  0.00000E+00  9.000E+00
      21     1     1     2   503   511  8.779540263E+00 -1.362607758E+01 -7.582162865E+01  7.753495785E+01  9.536743164E-07  0.00000E+00  9.000E+00
#rwgt            1           9   8.8035207183921664E-005           3     2338123           0
</event>
<event>
      6   9999  3.45752E-01  7.25235E+00 -1.00000E+00  2.03198E-01
      21    -1     0     0   501   502  0.000000000E+00  0.000000000E+00  3.327904127E+03  3.327904127E+03  0.000000000E+00  0.00000E+00  9.000E+00
      21    -1     0     0   502   512  0.000000000E+00  0.000000000E+00 -7.870999610E+00  7.870999610E+00  0.000000000E+00  0.00000E+00  9.000E+00
      25     1     1     2     0     0 -4.457416587E+01  4.710362249E+01  2.578977115E+03  2.582818895E+03  1.249995107E+02  0.00000E+00  9.000E+00
       5     1     1     2   501     0 -1.037869214E+00 -6.396562618E-01  5.570272700E+02  5.570488563E+02  4.750000000E+00  0.00000E+00  9.000E+00
      -5     1     1     2     0   503  4.104567257E+01 -4.082970389E+01  1.746158989E+02  1.840246902E+02  4.750000000E+00  0.00000E+00  9.000E+00
      21     1     1     2   503   512  4.566362513E+00 -5.634262337E+00  9.412843363E+00  1.188268483E+01  8.344650269E-07  0.00000E+00  9.000E+00
#rwgt            1           9   1.1239221397919316E-002           3     2339632           0
</event>
<event>
      6   9999 -3.45752E-01  8.86272E+00 -1.00000E+00  1.92891E-01
      21    -1     0     0   511   502  0.000000000E+00  0.000000000E+00  1.309295395E+02  1.309295395E+02  0.000000000E+00  0.00000E+00  9.000E+00
      21    -1     0     0   502   503  0.000000000E+00  0.000000000E+00 -9.756636917E+02  9.756636917E+02  0.000000000E+00  0.00000E+00  9.000E+00
      25     1     1     2     0     0  3.517647203E+01  1.021551280E+01 -6.829813006E+02  6.952916711E+02  1.250012399E+02  0.00000E+00  9.000E+00
       5     1     1     2   501     0 -4.301678440E+00 -4.293185221E+00  1.051758562E+01  1.304292851E+01  4.750000000E+00  0.00000E+00  9.000E+00
      -5     1     1     2     0   503 -3.453811891E+01 -1.399250867E+01 -2.838512833E+02  2.863263619E+02  4.750000000E+00  0.00000E+00  9.000E+00
      21     1     1     2   511   501  3.663325316E+00  8.070181092E+00  1.115808462E+02  1.119322697E+02  3.015782986E-06  0.00000E+00  9.000E+00
#rwgt            1           9  -6.5828248167911461E-004           3     2343281           0
</event>
<event>
      6   9999  3.45752E-01  9.18040E+00 -1.00000E+00  1.91192E-01
      21    -1     0     0   501   512  0.000000000E+00  0.000000000E+00  1.469042130E+02  1.469042130E+02  0.000000000E+00  0.00000E+00  9.000E+00
      21    -1     0     0   502   503  0.000000000E+00  0.000000000E+00 -1.873805193E+02  1.873805193E+02  0.000000000E+00  0.00000E+00  9.000E+00
      25     1     1     2     0     0  5.018508812E+00  2.424991770E+00 -1.573960181E+02  2.010742485E+02  1.250051234E+02  0.00000E+00  9.000E+00
       5     1     1     2   501     0 -3.513653853E+00  6.200629269E+00  5.160738569E+01  5.231327102E+01  4.750000000E+00  0.00000E+00  9.000E+00
      -5     1     1     2     0   503 -2.932194152E+00  4.431375347E-01 -6.454832962E+00  8.545261962E+00  4.750000000E+00  0.00000E+00  9.000E+00
      21     1     1     2   502   512  1.427339193E+00 -9.068758573E+00  7.176715907E+01  7.235195091E+01  0.000000000E+00  0.00000E+00  9.000E+00
#rwgt            1           9   8.4468075683536512E-003           3     2346388           0
</event>
<event>
      6   9999 -3.45752E-01  1.27439E+01 -1.00000E+00  1.76743E-01
      21    -1     0     0   501   502  0.000000000E+00  0.000000000E+00  8.941363748E+02  8.941363748E+02  0.000000000E+00  0.00000E+00  9.000E+00
      21    -1     0     0   502   511  0.000000000E+00  0.000000000E+00 -4.374181895E+01  4.374181895E+01  0.000000000E+00  0.00000E+00  9.000E+00
      25     1     1     2     0     0  2.124750219E+01 -2.109111075E+01  7.516612416E+02  7.625715510E+02  1.249978277E+02  0.00000E+00  9.000E+00
       5     1     1     2   501     0 -8.651815222E-01 -7.304186005E-01  1.024760029E+02  1.025922790E+02  4.750000000E+00  0.00000E+00  9.000E+00
      -5     1     1     2     0   503 -2.541853589E+01  1.011491713E+01  2.743416682E+01  3.903344111E+01  4.750000000E+00  0.00000E+00  9.000E+00
      21     1     1     2   503   511  5.036215228E+00  1.170661222E+01 -3.117685545E+01  3.368092263E+01  1.846782373E-06  0.00000E+00  9.000E+00
#rwgt            1           9  -3.2863324034424470E-002           3     2350145           0
</event>
<event>
      6   9999  3.45752E-01  1.22580E+01 -1.00000E+00  1.78337E-01
      21    -1     0     0   512   502  0.000000000E+00  0.000000000E+00  1.320001945E+01  1.320001945E+01  0.000000000E+00  0.00000E+00  9.000E+00
      21    -1     0     0   502   503  0.000000000E+00  0.000000000E+00 -6.293492668E+02  6.293492668E+02  0.000000000E+00  0.00000E+00  9.000E+00
      25     1     1     2     0     0 -9.129897241E+00  6.885673703E+00 -5.794304667E+02  5.928708977E+02  1.250018725E+02  0.00000E+00  9.000E+00
       5     1     1     2   501     0 -3.125124241E-01  1.883567058E+00  2.343451589E+00  5.630253478E+00  4.750000000E+00  0.00000E+00  9.000E+00
      -5     1     1     2     0   503 -1.537630424E-01 -1.142191157E+00 -2.464128111E+01  2.512137493E+01  4.750000000E+00  0.00000E+00  9.000E+00
      21     1     1     2   512   501  9.596172708E+00 -7.627049604E+00 -1.442095112E+01  1.892676009E+01  2.384185791E-07  0.00000E+00  9.000E+00
#rwgt            1           9   1.6812572877227218E-003           3     2353303           0
</event>
<event>
      6   9999  3.45752E-01  5.76238E+00 -1.00000E+00  2.16532E-01
      21    -1     0     0   501   511  0.000000000E+00  0.000000000E+00  3.791491971E+02  3.791491971E+02  0.000000000E+00  0.00000E+00  9.000E+00
      21    -1     0     0   502   503  0.000000000E+00  0.000000000E+00 -2.561556956E+03  2.561556956E+03  0.000000000E+00  0.00000E+00  9.000E+00
      25     1     1     2     0     0 -2.892955611E-02  2.115733471E+01 -1.937900824E+03  1.942043941E+03  1.250097360E+02  0.00000E+00  9.000E+00
       5     1     1     2   501     0 -3.143440063E+00 -1.695720426E+00  7.449042195E+00  9.529292356E+00  4.750000000E+00  0.00000E+00  9.000E+00
      -5     1     1     2     0   503 -3.509175610E-01 -2.402138371E+01 -6.202802959E+02  6.207635283E+02  4.750000000E+00  0.00000E+00  9.000E+00
      21     1     1     2   502   511  3.523287180E+00  4.559769431E+00  3.683243183E+02  3.683693914E+02  7.629394531E-06  0.00000E+00  9.000E+00
#rwgt            1           9   130.75887981846068                3     2355448           0
</event>
<event>
      6   9999  3.45752E-01  1.67280E+02 -1.00000E+00  1.11647E-01
      21    -1     0     0   512   502  0.000000000E+00  0.000000000E+00  8.165243667E+01  8.165243667E+01  0.000000000E+00  0.00000E+00  9.000E+00
       2    -1     0     0   501     0  0.000000000E+00  0.000000000E+00 -2.853854073E+03  2.853854073E+03  0.000000000E+00  0.00000E+00  9.000E+00
      25     1     1     2     0     0 -2.075461538E+02  1.799355124E+02 -2.275090947E+03  2.295019827E+03  1.249999867E+02  0.00000E+00  9.000E+00
       5     1     1     2   501     0 -2.165078338E+00  1.651675683E+01  8.309639147E+00  1.921206452E+01  4.750000000E+00  0.00000E+00  9.000E+00
      -5     1     1     2     0   502  1.914677060E+02 -3.017027817E+01 -2.794510022E+02  3.401257903E+02  4.750000000E+00  0.00000E+00  9.000E+00
       2     1     1     2   512     0  1.824352618E+01 -1.662819911E+02 -2.259693269E+02  2.811488281E+02  2.697398305E-06  0.00000E+00  9.000E+00
#rwgt            1           3   3.4550273333861787E-006           3     2359922           0
</event>
<event>
      6   9999  3.45752E-01  9.21045E+01 -1.00000E+00  1.21973E-01
      21    -1     0     0   501   502  0.000000000E+00  0.000000000E+00  6.155232324E+01  6.155232324E+01  0.000000000E+00  0.00000E+00  9.000E+00
      21    -1     0     0   502   511  0.000000000E+00  0.000000000E+00 -1.798628274E+03  1.798628274E+03  0.000000000E+00  0.00000E+00  9.000E+00
      25     1     1     2     0     0 -2.693086543E+02 -2.755698464E+01 -5.045040585E+02  5.860337966E+02  1.249989082E+02  0.00000E+00  9.000E+00
       5     1     1     2   501     0  1.972273472E+02  1.501731684E+01 -6.880324204E+02  7.159157216E+02  4.750000000E+00  0.00000E+00  9.000E+00
      -5     1     1     2     0   503 -1.989492784E+01  7.680398000E+00 -4.222976173E+01  4.754694462E+01  4.750000000E+00  0.00000E+00  9.000E+00
      21     1     1     2   503   511  9.197623496E+01  4.859269800E+00 -5.023097104E+02  5.106841347E+02  5.394796609E-06  0.00000E+00  9.000E+00
#rwgt            1           9   9.1464567439110520E-004           3     2360816           0
</event>
<event>
      6   9999  3.45752E-01  3.72159E+00 -1.00000E+00  2.54518E-01
      21    -1     0     0   512   502  0.000000000E+00  0.000000000E+00  4.985908331E+01  4.985908331E+01  0.000000000E+00  0.00000E+00  9.000E+00
      21    -1     0     0   502   503  0.000000000E+00  0.000000000E+00 -1.278024156E+03  1.278024156E+03  0.000000000E+00  0.00000E+00  9.000E+00
      25     1     1     2     0     0 -2.739156421E+01  1.548443712E+02 -3.273757285E+02  3.840927297E+02  1.250011215E+02  0.00000E+00  9.000E+00
       5     1     1     2   501     0 -5.643278203E-02 -2.689911869E+00  8.964262225E+00  1.049568043E+01  4.750000000E+00  0.00000E+00  9.000E+00
      -5     1     1     2     0   503  2.635555929E+01 -1.485968154E+02 -9.147147768E+02  9.270929374E+02  4.750000000E+00  0.00000E+00  9.000E+00
      21     1     1     2   512   501  1.092437695E+00 -3.557643896E+00  4.961170360E+00  6.201891771E+00  1.976862425E-07  0.00000E+00  9.000E+00
#rwgt            1           9   6.8632902379052929E-004           3     2361990           0
</event>
<event>
      6   9999 -3.45752E-01  1.50565E+01 -1.00000E+00  1.70230E-01
      21    -1     0     0   501   502  0.000000000E+00  0.000000000E+00  2.648646609E+01  2.648646609E+01  0.000000000E+00  0.00000E+00  9.000E+00
      21    -1     0     0   511   503  0.000000000E+00  0.000000000E+00 -3.652042616E+03  3.652042616E+03  0.000000000E+00  0.00000E+00  9.000E+00
      25     1     1     2     0     0 -1.806459948E+02  1.241948256E+02 -2.076201147E+03  2.091481190E+03  1.250001409E+02  0.00000E+00  9.000E+00
       5     1     1     2   501     0  3.350952963E+00 -4.117640697E+00  8.631666624E+00  1.119160486E+01  4.750000000E+00  0.00000E+00  9.000E+00
      -5     1     1     2     0   503  1.894090526E+02 -1.111357197E+02 -1.396548598E+03  1.413717612E+03  4.750000000E+00  0.00000E+00  9.000E+00
      21     1     1     2   511   502 -1.211401077E+01 -8.941465166E+00 -1.614380723E+02  1.621386760E+02  1.907348633E-06  0.00000E+00  9.000E+00
#rwgt            1           9  -7.3764436413056267E-005           3     2369145           0
</event>
<event>
      6   9999  3.45752E-01  2.85489E+01 -1.00000E+00  1.49244E-01
      21    -1     0     0   512   502  0.000000000E+00  0.000000000E+00  8.909441397E+00  8.909441397E+00  0.000000000E+00  0.00000E+00  9.000E+00
      21    -1     0     0   502   503  0.000000000E+00  0.000000000E+00 -3.297754407E+03  3.297754407E+03  0.000000000E+00  0.00000E+00  9.000E+00
      25     1     1     2     0     0  9.181961692E+00 -1.154286529E+01 -2.881907705E+03  2.884655042E+03  1.250005610E+02  0.00000E+00  9.000E+00
       5     1     1     2   501     0 -2.718760829E+00 -1.304532948E+01 -1.237855696E+00  1.420095308E+01  4.750000000E+00  0.00000E+00  9.000E+00
      -5     1     1     2     0   503 -2.827041119E+00 -3.728162489E+00 -2.028265661E+02  2.029361224E+02  4.750000000E+00  0.00000E+00  9.000E+00
      21     1     1     2   512   501 -3.636159744E+00  2.831635725E+01 -2.028728388E+02  2.048717318E+02  2.697398305E-06  0.00000E+00  9.000E+00
#rwgt            1           9   5.2546774987887517                3     2371922           0
</event>
<event>
      6   9999  3.45752E-01  6.11109E+00 -1.00000E+00  2.12954E-01
      21    -1     0     0   501   502  0.000000000E+00  0.000000000E+00  2.514021203E+03  2.514021203E+03  0.000000000E+00  0.00000E+00  9.000E+00
      21    -1     0     0   502   511  0.000000000E+00  0.000000000E+00 -9.155221237E+00  9.155221237E+00  0.000000000E+00  0.00000E+00  9.000E+00
      25     1     1     2     0     0 -5.509781872E+01 -1.008617412E-01  6.744540965E+02  6.881494627E+02  1.250022998E+02  0.00000E+00  9.000E+00
       5     1     1     2   501     0 -6.441744913E-02  3.217615046E-02  1.315115062E+03  1.315123642E+03  4.750000000E+00  0.00000E+00  9.000E+00
      -5     1     1     2     0   503  5.117980586E+01 -4.566580629E+00  5.068911963E+02  5.095110142E+02  4.750000000E+00  0.00000E+00  9.000E+00
      21     1     1     2   503   511  3.982430307E+00  4.635266220E+00  8.405627072E+00  1.039230535E+01  5.591411304E-07  0.00000E+00  9.000E+00
#rwgt            1           9  0.35237170386281963                3     2373209           0
</event>
<event>
      6   9999  3.45752E-01  5.48322E+00 -1.00000E+00  2.19655E-01
      21    -1     0     0   512   502  0.000000000E+00  0.000000000E+00  8.397274427E+01  8.397274427E+01  0.000000000E+00  0.00000E+00  9.000E+00
      21    -1     0     0   502   503  0.000000000E+00  0.000000000E+00 -1.446275472E+03  1.446275472E+03  0.000000000E+00  0.00000E+00  9.000E+00
      25     1     1     2     0     0 -2.433069686E+01  5.606192513E-01 -9.110152646E+02  9.198744708E+02  1.250117299E+02  0.00000E+00  9.000E+00
       5     1     1     2   501     0  6.522224717E+00 -9.762943526E+00  6.569018881E+01  6.690005895E+01  4.750000000E+00  0.00000E+00  9.000E+00
      -5     1     1     2     0   503  2.297184034E+01  7.356977475E+00 -5.293605397E+02  5.299311031E+02  4.750000000E+00  0.00000E+00  9.000E+00
      21     1     1     2   512   501 -5.163368190E+00  1.845346800E+00  1.238288737E+01  1.354258378E+01  6.307962682E-07  0.00000E+00  9.000E+00
#rwgt            1           9   2.6253677386210113E-005           3     2377643           0
</event>
<event>
      6   9999  3.45752E-01  5.01445E+00 -1.00000E+00  2.25521E-01
      21    -1     0     0   501   502  0.000000000E+00  0.000000000E+00  1.890058457E+01  1.890058457E+01  0.000000000E+00  0.00000E+00  9.000E+00
      21    -1     0     0   511   503  0.000000000E+00  0.000000000E+00 -9.891767740E+02  9.891767740E+02  0.000000000E+00  0.00000E+00  9.000E+00
      25     1     1     2     0     0 -4.088821231E-01  2.053057903E+00 -8.385326364E+02  8.478016706E+02  1.250052321E+02  0.00000E+00  9.000E+00
       5     1     1     2   501     0  1.959187156E-01 -3.732590153E+00  1.337669942E+01  1.467886919E+01  4.750000000E+00  0.00000E+00  9.000E+00
      -5     1     1     2     0   503  1.120113890E+00 -3.252184830E+00 -4.968535898E+01  5.003027841E+01  4.750000000E+00  0.00000E+00  9.000E+00
      21     1     1     2   511   502 -9.071504825E-01  4.931717080E+00 -9.543489338E+01  9.556654033E+01  0.000000000E+00  0.00000E+00  9.000E+00
#rwgt            1           9   1.5927521401940158E-002           3     2384490           0
</event>
<event>
      6   9999  3.45752E-01  1.61366E+01 -1.00000E+00  1.67668E-01
      21    -1     0     0   512   502  0.000000000E+00  0.000000000E+00  1.417858768E+01  1.417858768E+01  0.000000000E+00  0.00000E+00  9.000E+00
      21    -1     0     0   502   503  0.000000000E+00  0.000000000E+00 -8.239277337E+02  8.239277337E+02  0.000000000E+00  0.00000E+00  9.000E+00
      25     1     1     2     0     0 -3.181528312E+00 -6.652759055E+00 -7.154006453E+02  7.262745862E+02  1.249892395E+02  0.00000E+00  9.000E+00
       5     1     1     2   501     0  1.746954151E-01 -1.936698014E+00  3.637163855E+00  6.290689834E+00  4.750000000E+00  0.00000E+00  9.000E+00
      -5     1     1     2     0   503 -3.084078013E+00 -6.353406293E+00 -8.326460799E+01  8.369847521E+01  4.750000000E+00  0.00000E+00  9.000E+00
      21     1     1     2   512   501  6.090910911E+00  1.494286336E+01 -1.472105659E+01  2.184257010E+01  3.371747881E-07  0.00000E+00  9.000E+00
#rwgt            1           9   2.7646639778091510E-005           3     2389314           0
</event>
<event>
      6   9999 -3.45752E-01  6.79638E+00 -1.00000E+00  2.06786E-01
      21    -1     0     0   501   502  0.000000000E+00  0.000000000E+00  6.500382804E+01  6.500382804E+01  0.000000000E+00  0.00000E+00  9.000E+00
      21    -1     0     0   511   503  0.000000000E+00  0.000000000E+00 -1.109626676E+02  1.109626676E+02  0.000000000E+00  0.00000E+00  9.000E+00
      25     1     1     2     0     0  4.676330806E+00  8.294170344E+00 -4.564428122E+01  1.334158167E+02  1.250028736E+02  0.00000E+00  9.000E+00
       5     1     1     2   501     0 -1.504985383E-01  8.325811079E-01  1.710730056E+01  1.777464693E+01  4.750000000E+00  0.00000E+00  9.000E+00
      -5     1     1     2     0   503 -9.832935918E-01 -3.326651093E+00  2.038751132E-01  5.885366500E+00  4.750000000E+00  0.00000E+00  9.000E+00
      21     1     1     2   511   502 -3.542538676E+00 -5.800100359E+00 -1.762573405E+01  1.889066556E+01  3.371747881E-07  0.00000E+00  9.000E+00
#rwgt            1           9  -2.8274155564790644E-002           3     2390947           0
</event>
<event>
      6   9999  3.45752E-01  9.01887E+00 -1.00000E+00  1.92045E-01
      21    -1     0     0   501   512  0.000000000E+00  0.000000000E+00  1.712777495E+01  1.712777495E+01  0.000000000E+00  0.00000E+00  9.000E+00
      21    -1     0     0   502   503  0.000000000E+00  0.000000000E+00 -9.453121383E+02  9.453121383E+02  0.000000000E+00  0.00000E+00  9.000E+00
      25     1     1     2     0     0 -6.576623957E+01 -5.453941932E+01 -6.598547745E+02  6.770032425E+02  1.250012812E+02  0.00000E+00  9.000E+00
       5     1     1     2   501     0  5.409528768E+01  4.456626304E+01 -1.572446500E+02  1.722233852E+02  4.750000000E+00  0.00000E+00  9.000E+00
      -5     1     1     2     0   503  4.876725562E+00  4.042012064E+00 -8.908980609E+01  8.944090990E+01  4.750000000E+00  0.00000E+00  9.000E+00
      21     1     1     2   502   512  6.794226327E+00  5.931144222E+00 -2.199513272E+01  2.377237570E+01  4.768371582E-07  0.00000E+00  9.000E+00
#rwgt            1           9   7.5715157093544455E-002           3     2393772           0
</event>
<event>
      6   9999  3.45752E-01  2.58906E+01 -1.00000E+00  1.52099E-01
      21    -1     0     0   502   511  0.000000000E+00  0.000000000E+00  2.827914295E+02  2.827914295E+02  0.000000000E+00  0.00000E+00  9.000E+00
      21    -1     0     0   501   502  0.000000000E+00  0.000000000E+00 -5.224659360E+02  5.224659360E+02  0.000000000E+00  0.00000E+00  9.000E+00
      25     1     1     2     0     0 -1.840342937E+01 -1.645484957E+02 -4.424973467E+02  4.887164773E+02  1.249999987E+02  0.00000E+00  9.000E+00
       5     1     1     2   501     0  1.551032100E+00  8.588628042E-01  1.150348772E+02  1.151465536E+02  4.750000000E+00  0.00000E+00  9.000E+00
      -5     1     1     2     0   503  3.894511135E+01  1.501902680E+02  7.248971407E+01  1.713218009E+02  4.750000000E+00  0.00000E+00  9.000E+00
      21     1     1     2   503   511 -2.209271408E+01  1.349936487E+01  1.529824889E+01  3.007253376E+01  2.920019320E-07  0.00000E+00  9.000E+00
#rwgt            1           9   1.4174172596017646E-004           3     2396784           0
</event>
<event>
      6   9999  3.45752E-01  2.29523E+01 -1.00000E+00  1.55776E-01
      21    -1     0     0   501   512  0.000000000E+00  0.000000000E+00  2.727972911E+01  2.727972911E+01  0.000000000E+00  0.00000E+00  9.000E+00
      21    -1     0     0   502   503  0.000000000E+00  0.000000000E+00 -1.038500920E+03  1.038500920E+03  0.000000000E+00  0.00000E+00  9.000E+00
      25     1     1     2     0     0 -8.306509602E+01 -2.410066870E+01 -2.762435111E+02  3.153146765E+02  1.250288583E+02  0.00000E+00  9.000E+00
       5     1     1     2   501     0 -3.288883817E-01  3.674089595E-01  1.768579821E+00  5.092497569E+00  4.750000000E+00  0.00000E+00  9.000E+00
      -5     1     1     2     0   503  6.796546719E+01  4.072648269E+01 -6.721514318E+02  6.768220304E+02  4.750000000E+00  0.00000E+00  9.000E+00
      21     1     1     2   502   512  1.542851721E+01 -1.699322296E+01 -6.459482770E+01  6.855144445E+01  0.000000000E+00  0.00000E+00  9.000E+00
#rwgt            1           9   5.6294031398141937E-004           3     2399613           0
</event>
<event>
      6   9999  3.45752E-01  5.93381E+01 -1.00000E+00  1.30925E-01
      -1    -1     0     0     0   502  0.000000000E+00  0.000000000E+00  3.479557878E+02  3.479557878E+02  0.000000000E+00  0.00000E+00  9.000E+00
      21    -1     0     0   502   503  0.000000000E+00  0.000000000E+00 -1.173985724E+03  1.173985724E+03  0.000000000E+00  0.00000E+00  9.000E+00
      25     1     1     2     0     0  9.421268230E+00  2.463610125E+01 -7.246152157E+02  7.357915239E+02  1.250050324E+02  0.00000E+00  9.000E+00
       5     1     1     2   501     0  2.111749117E+01  3.915169111E+01  9.866095411E+01  1.083298191E+02  4.750000000E+00  0.00000E+00  9.000E+00
      -5     1     1     2     0   503  5.532884557E+00 -1.667256721E+01 -4.350697505E+02  4.354501552E+02  4.750000000E+00  0.00000E+00  9.000E+00
      -1     1     1     2     0   501 -3.607164396E+01 -4.711522515E+01  2.349940757E+02  2.423700137E+02  4.672030912E-06  0.00000E+00  9.000E+00
#rwgt            1           9  0.68478364345476672                3     2401231           0
</event>
<event>
      6   9999  3.45752E-01  1.26437E+01 -1.00000E+00  1.77065E-01
      21    -1     0     0   501   502  0.000000000E+00  0.000000000E+00  1.183998003E+01  1.183998003E+01  0.000000000E+00  0.00000E+00  9.000E+00
      21    -1     0     0   511   503  0.000000000E+00  0.000000000E+00 -9.422664372E+02  9.422664372E+02  0.000000000E+00  0.00000E+00  9.000E+00
      25     1     1     2     0     0 -7.049042632E+00  1.243592668E+00 -8.137735457E+02  8.233493392E+02  1.250020607E+02  0.00000E+00  9.000E+00
       5     1     1     2   501     0 -4.802891938E+00 -2.283427441E+00  4.399498328E+00  8.378537903E+00  4.750000000E+00  0.00000E+00  9.000E+00
      -5     1     1     2     0   503 -7.544708431E-01  2.010014325E+00 -2.946819426E+01  2.992568056E+01  4.750000000E+00  0.00000E+00  9.000E+00
      21     1     1     2   511   502  1.260640541E+01 -9.701795513E-01 -9.158421555E+01  9.245285957E+01  1.907348633E-06  0.00000E+00  9.000E+00
#rwgt            1           9   1.3705801862675110E-002           3     2402499           0
</event>
<event>
      6   9999 -3.45752E-01  2.02178E+01 -1.00000E+00  1.59852E-01
      21    -1     0     0   501   502  0.000000000E+00  0.000000000E+00  1.467023074E+03  1.467023074E+03  0.000000000E+00  0.00000E+00  9.000E+00
      21    -1     0     0   512   503  0.000000000E+00  0.000000000E+00 -1.543993276E+01  1.543993276E+01  0.000000000E+00  0.00000E+00  9.000E+00
      25     1     1     2     0     0  4.369326541E+01 -6.633421879E+00  3.225419304E+02  3.487271349E+02  1.249968560E+02  0.00000E+00  9.000E+00
       5     1     1     2   501     0 -1.254006118E+00  1.075714012E+00  2.501987444E+02  2.502492835E+02  4.750000000E+00  0.00000E+00  9.000E+00
      -5     1     1     2     0   503 -6.166373344E+01  1.181708268E+01  7.833947909E+02  7.859211286E+02  4.750000000E+00  0.00000E+00  9.000E+00
      21     1     1     2   512   502  1.922447414E+01 -6.259374810E+00  9.544767578E+01  9.756546003E+01  1.348699152E-06  0.00000E+00  9.000E+00
#rwgt            1           9  -4.3685520997034608E-006           3     2404733           0
</event>
<event>
      6   9999  3.45752E-01  8.69735E+00 -1.00000E+00  1.93813E-01
      21    -1     0     0   501   502  0.000000000E+00  0.000000000E+00  9.297682310E+00  9.297682310E+00  0.000000000E+00  0.00000E+00  9.000E+00
      21    -1     0     0   502   511  0.000000000E+00  0.000000000E+00 -8.521417433E+02  8.521417433E+02  0.000000000E+00  0.00000E+00  9.000E+00
      25     1     1     2     0     0  1.224404127E+01 -2.200592881E+00 -4.435967145E+02  4.610402998E+02  1.250014154E+02  0.00000E+00  9.000E+00
       5     1     1     2   501     0  2.860028394E+00 -7.065217008E+00 -8.420781700E+01  8.468539424E+01  4.750000000E+00  0.00000E+00  9.000E+00
      -5     1     1     2     0   503 -6.914748992E+00  6.336830513E+00 -2.276068178E+02  2.278495012E+02  4.750000000E+00  0.00000E+00  9.000E+00
      21     1     1     2   503   511 -8.189320672E+00  2.928979376E+00 -8.743271176E+01  8.786423037E+01  1.348699152E-06  0.00000E+00  9.000E+00
#rwgt            1           9   4.5591726456998882E-002           3     2406706           0
</event>
<event>
      6   9999  3.45752E-01  1.23026E+01 -1.00000E+00  1.78187E-01
      21    -1     0     0   501   502  0.000000000E+00  0.000000000E+00  9.025356999E+00  9.025356999E+00  0.000000000E+00  0.00000E+00  9.000E+00
      21    -1     0     0   512   503  0.000000000E+00  0.000000000E+00 -7.461943709E+02  7.461943709E+02  0.000000000E+00  0.00000E+00  9.000E+00
      25     1     1     2     0     0  8.096081764E+00  7.835437533E+00 -5.891267045E+02  6.023471697E+02  1.249995930E+02  0.00000E+00  9.000E+00
       5     1     1     2   501     0  5.889323308E-01 -1.398576384E-01 -1.881839316E+00  5.144921832E+00  4.750000000E+00  0.00000E+00  9.000E+00
      -5     1     1     2     0   503  3.284403574E+00 -4.851981850E+00 -8.550876221E+01  8.584078255E+01  4.750000000E+00  0.00000E+00  9.000E+00
      21     1     1     2   512   502 -1.196941767E+01 -2.843598044E+00 -6.065170789E+01  6.188685385E+01  9.536743164E-07  0.00000E+00  9.000E+00
#rwgt            1           9   1.7472127638879765E-003           3     2408912           0
</event>
<event>
      6   9999  3.45752E-01  6.44357E+00 -1.00000E+00  2.09832E-01
      21    -1     0     0   501   502  0.000000000E+00  0.000000000E+00  2.482936004E+02  2.482936004E+02  0.000000000E+00  0.00000E+00  9.000E+00
      21    -1     0     0   502   511  0.000000000E+00  0.000000000E+00 -7.090125338E+01  7.090125338E+01  0.000000000E+00  0.00000E+00  9.000E+00
      25     1     1     2     0     0  3.889988055E+01  5.286593839E+01  7.241553724E+01  1.586745019E+02  1.250023174E+02  0.00000E+00  9.000E+00
       5     1     1     2   501     0 -2.116891344E+00  4.281123511E-01  5.856411267E+01  5.879610788E+01  4.750000000E+00  0.00000E+00  9.000E+00
      -5     1     1     2     0   503 -4.307371407E+01 -5.468919718E+01  5.648037862E+01  8.977109112E+01  4.750000000E+00  0.00000E+00  9.000E+00
      21     1     1     2   503   511  6.290724866E+00  1.395146444E+00 -1.006768151E+01  1.195315289E+01  1.685873940E-07  0.00000E+00  9.000E+00
#rwgt            1           9   6.6001616859901076E-004           3     2410893           0
</event>
<event>
      6   9999  3.45752E-01  1.43499E+01 -1.00000E+00  1.72056E-01
      21    -1     0     0   501   502  0.000000000E+00  0.000000000E+00  5.203061013E+01  5.203061013E+01  0.000000000E+00  0.00000E+00  9.000E+00
      21    -1     0     0   512   503  0.000000000E+00  0.000000000E+00 -1.473952109E+03  1.473952109E+03  0.000000000E+00  0.00000E+00  9.000E+00
      25     1     1     2     0     0 -2.590983142E+01  1.904588870E+01 -1.133195596E+03  1.140522232E+03  1.249985458E+02  0.00000E+00  9.000E+00
       5     1     1     2   501     0  1.826190521E+00 -5.257087377E+00  4.722320978E+01  4.778667159E+01  4.750000000E+00  0.00000E+00  9.000E+00
      -5     1     1     2     0   503  1.766830407E+01 -9.527733255E-01 -1.389185963E+02  1.401214317E+02  4.750000000E+00  0.00000E+00  9.000E+00
      21     1     1     2   512   502  6.415336831E+00 -1.283602800E+01 -1.970305164E+02  1.975523844E+02  3.814697266E-06  0.00000E+00  9.000E+00
#rwgt            1           9   5.6150474169527430E-005           3     2414615           0
</event>
<event>
      6   9999  3.45752E-01  7.47458E+00 -1.00000E+00  2.01574E-01
      21    -1     0     0   511   502  0.000000000E+00  0.000000000E+00  6.834847094E+00  6.834847094E+00  0.000000000E+00  0.00000E+00  9.000E+00
      21    -1     0     0   502   503  0.000000000E+00  0.000000000E+00 -7.944306330E+02  7.944306330E+02  0.000000000E+00  0.00000E+00  9.000E+00
      25     1     1     2     0     0  7.808763553E+00 -5.701556450E+00 -6.962292805E+02  7.074280741E+02  1.250031380E+02  0.00000E+00  9.000E+00
       5     1     1     2   501     0  3.987829603E-02 -1.787308934E-01 -1.087498565E+01  1.186850235E+01  4.750000000E+00  0.00000E+00  9.000E+00
      -5     1     1     2     0   503 -2.189371344E+00  9.974598972E-01 -5.850060535E+01  5.874241738E+01  4.750000000E+00  0.00000E+00  9.000E+00
      21     1     1     2   511   501 -5.659270506E+00  4.882827446E+00 -2.199091441E+01  2.322648625E+01  4.768371582E-07  0.00000E+00  9.000E+00
#rwgt            1           9   3.1621929837823300E-004           3     2417559           0
</event>
<event>
      6   9999 -3.45752E-01  7.72207E+00 -1.00000E+00  1.99851E-01
       2    -1     0     0   501     0  0.000000000E+00  0.000000000E+00  1.353876817E+03  1.353876817E+03  0.000000000E+00  0.00000E+00  9.000E+00
      21    -1     0     0   502   503  0.000000000E+00  0.000000000E+00 -7.496801168E+02  7.496801168E+02  0.000000000E+00  0.00000E+00  9.000E+00
      25     1     1     2     0     0  7.894299968E+00 -1.314982734E+00 -6.580179491E+02  6.698338774E+02  1.250030110E+02  0.00000E+00  9.000E+00
       5     1     1     2   501     0  1.953791656E+00  2.596108766E+00  3.453266018E+00  6.711529539E+00  4.750000000E+00  0.00000E+00  9.000E+00
      -5     1     1     2     0   503 -2.385179665E+00  7.026337509E-01 -8.402853437E+01  8.419940537E+01  4.750000000E+00  0.00000E+00  9.000E+00
       2     1     1     2   502     0 -7.462911958E+00 -1.983759783E+00  1.342789918E+03  1.342812121E+03  2.157918644E-05  0.00000E+00  9.000E+00
#rwgt            1           9  -1.7111546150927217E-003           3     2420123           0
</event>
<event>
      6   9999  3.45752E-01  1.32838E+01 -1.00000E+00  1.75075E-01
      21    -1     0     0   501   502  0.000000000E+00  0.000000000E+00  1.361001171E+03  1.361001171E+03  0.000000000E+00  0.00000E+00  9.000E+00
      21    -1     0     0   502   511  0.000000000E+00  0.000000000E+00 -1.622531661E+01  1.622531661E+01  0.000000000E+00  0.00000E+00  9.000E+00
      25     1     1     2     0     0  2.561638048E+01  1.268417962E+01  1.023457733E+03  1.031458340E+03  1.249939547E+02  0.00000E+00  9.000E+00
       5     1     1     2   501     0  1.639012088E-01  1.797139855E+00  2.403538795E+02  2.404075840E+02  4.750000000E+00  0.00000E+00  9.000E+00
      -5     1     1     2     0   503 -2.066548946E+01 -2.221749798E+00  8.784866353E+01  9.039883191E+01  4.750000000E+00  0.00000E+00  9.000E+00
      21     1     1     2   503   511 -5.114792229E+00 -1.225956967E+01 -6.884421691E+00  1.496173152E+01  5.264139692E-07  0.00000E+00  9.000E+00
#rwgt            1           9   6.3149271919248832E-004           3     2423148           0
</event>
<event>
      6   9999 -3.45752E-01  2.15554E+01 -1.00000E+00  1.57767E-01
      21    -1     0     0   501   502  0.000000000E+00  0.000000000E+00  7.856910339E+01  7.856910339E+01  0.000000000E+00  0.00000E+00  9.000E+00
       1    -1     0     0   502     0  0.000000000E+00  0.000000000E+00 -9.322026631E+02  9.322026631E+02  0.000000000E+00  0.00000E+00  9.000E+00
      25     1     1     2     0     0 -4.197900438E+01  1.298798697E+01 -4.040102587E+02  4.251814055E+02  1.249960553E+02  0.00000E+00  9.000E+00
       5     1     1     2   501     0  6.010415170E+00 -5.729170337E+00  4.493660893E+01  4.594355021E+01  4.750000000E+00  0.00000E+00  9.000E+00
      -5     1     1     2     0   503  5.637799890E+01 -1.419362369E+01 -1.584210746E+01  6.044396233E+01  4.750000000E+00  0.00000E+00  9.000E+00
       1     1     1     2   503     0 -2.040940969E+01  6.934807053E+00 -4.787178024E+02  4.792028484E+02  1.078959322E-05  0.00000E+00  9.000E+00
#rwgt            1           9  -1.3448224442763940E-004           3     2424686           0
</event>
<event>
      6   9999  3.45752E-01  1.18722E+01 -1.00000E+00  1.79670E-01
      21    -1     0     0   501   502  0.000000000E+00  0.000000000E+00  9.643312151E+00  9.643312151E+00  0.000000000E+00  0.00000E+00  9.000E+00
      21    -1     0     0   511   503  0.000000000E+00  0.000000000E+00 -8.392752057E+02  8.392752057E+02  0.000000000E+00  0.00000E+00  9.000E+00
      25     1     1     2     0     0 -5.942054759E+00  2.955392612E+01 -5.903805390E+02  6.042197546E+02  1.249943537E+02  0.00000E+00  9.000E+00
       5     1     1     2   501     0  2.293548056E+00 -1.494615642E+01 -4.264006690E+01  4.549050186E+01  4.750000000E+00  0.00000E+00  9.000E+00
      -5     1     1     2     0   503 -7.653010011E+00 -1.097117513E+01 -4.625822497E+01  4.838719999E+01  4.750000000E+00  0.00000E+00  9.000E+00
      21     1     1     2   511   502  1.130151671E+01 -3.636594570E+00 -1.503530627E+02  1.508210614E+02  2.697398305E-06  0.00000E+00  9.000E+00
#rwgt            1           9   3.0539297741263975E-003           3     2427091           0
</event>
<event>
      6   9999  3.45752E-01  3.87934E+00 -1.00000E+00  2.50636E-01
      21    -1     0     0   512   502  0.000000000E+00  0.000000000E+00  2.735417658E+03  2.735417658E+03  0.000000000E+00  0.00000E+00  9.000E+00
      21    -1     0     0   502   503  0.000000000E+00  0.000000000E+00 -9.441468537E+02  9.441468537E+02  0.000000000E+00  0.00000E+00  9.000E+00
      25     1     1     2     0     0  3.409908959E+01  1.406732057E+01 -4.874821923E+02  5.046041357E+02  1.250032342E+02  0.00000E+00  9.000E+00
       5     1     1     2   501     0 -1.953201214E+00 -4.548986945E+00  1.193388955E+01  1.376548208E+01  4.750000000E+00  0.00000E+00  9.000E+00
      -5     1     1     2     0   503 -3.072530242E+01 -1.312820805E+01 -4.465497722E+02  4.478232415E+02  4.750000000E+00  0.00000E+00  9.000E+00
      21     1     1     2   512   501 -1.420585952E+00  3.609874425E+00  2.713368879E+03  2.713371652E+03  0.000000000E+00  0.00000E+00  9.000E+00
#rwgt            1           9   6.6751740279930765E-003           3     2428887           0
</event>
<event>
      6   9999  3.45752E-01  4.85942E+00 -1.00000E+00  2.31562E-01
      21    -1     0     0   501   511  0.000000000E+00  0.000000000E+00  1.136230704E+03  1.136230704E+03  0.000000000E+00  0.00000E+00  9.000E+00
      21    -1     0     0   502   503  0.000000000E+00  0.000000000E+00 -2.671644239E+02  2.671644239E+02  0.000000000E+00  0.00000E+00  9.000E+00
      25     1     1     2     0     0 -2.755224919E+00 -6.704454001E+00 -2.091797607E+02  2.437841815E+02  1.249880550E+02  0.00000E+00  9.000E+00
       5     1     1     2   501     0  6.301915556E-01  9.320693595E-02  1.538699409E+00  5.033480386E+00  4.750000000E+00  0.00000E+00  9.000E+00
      -5     1     1     2     0   503  6.264206007E+00  9.157066217E+00 -3.799439826E+01  3.986513436E+01  4.750000000E+00  0.00000E+00  9.000E+00
      21     1     1     2   502   511 -4.139172644E+00 -2.545819152E+00  1.114701739E+03  1.114712331E+03  2.157918644E-05  0.00000E+00  9.000E+00
#rwgt            1           9   5.0123853480880899E-004           3     2434641           0
</event>
<event>
      6   9999  3.45752E-01  1.19398E+01 -1.00000E+00  1.79432E-01
      21    -1     0     0   501   502  0.000000000E+00  0.000000000E+00  1.055737450E+02  1.055737450E+02  0.000000000E+00  0.00000E+00  9.000E+00
      21    -1     0     0   502   512  0.000000000E+00  0.000000000E+00 -1.736797760E+03  1.736797760E+03  0.000000000E+00  0.00000E+00  9.000E+00
      25     1     1     2     0     0  2.288477955E+02  1.045269793E+02 -2.886140600E+02  4.027652111E+02  1.249981469E+02  0.00000E+00  9.000E+00
       5     1     1     2   501     0  9.001130435E+00 -1.484812996E+00  3.558753886E+01  3.704403381E+01  4.750000000E+00  0.00000E+00  9.000E+00
      -5     1     1     2     0   503 -2.260185422E+02 -1.014295292E+02 -1.292396623E+03  1.315934621E+03  4.750000000E+00  0.00000E+00  9.000E+00
      21     1     1     2   503   512 -1.183038374E+01 -1.612637128E+00 -8.580087012E+01  8.662763930E+01  1.651812370E-06  0.00000E+00  9.000E+00
#rwgt            1           9   1.6969170484178132E-004           3     2438154           0
</event>
<event>
      6   9999  3.45752E-01  1.22828E+01 -1.00000E+00  1.78253E-01
      21    -1     0     0   501   502  0.000000000E+00  0.000000000E+00  7.029267243E+01  7.029267243E+01  0.000000000E+00  0.00000E+00  9.000E+00
      21    -1     0     0   511   503  0.000000000E+00  0.000000000E+00 -2.151249422E+03  2.151249422E+03  0.000000000E+00  0.00000E+00  9.000E+00
      25     1     1     2     0     0 -1.517213602E+02 -7.382667943E+01 -4.016325925E+02  4.532166034E+02  1.250072015E+02  0.00000E+00  9.000E+00
       5     1     1     2   501     0  1.829109938E+00 -4.438926902E+00  3.822195236E+01  3.881404202E+01  4.750000000E+00  0.00000E+00  9.000E+00
      -5     1     1     2     0   503  1.376094364E+02  7.823657698E+01 -1.052119425E+03  1.063971412E+03  4.750000000E+00  0.00000E+00  9.000E+00
      21     1     1     2   511   502  1.228281388E+01  2.902935372E-02 -6.654266848E+02  6.655400373E+02  0.000000000E+00  0.00000E+00  9.000E+00
#rwgt            1           9   1.6486405716686456E-004           3     2442497           0
</event>
<event>
      6   9999  3.45752E-01  6.13604E+00 -1.00000E+00  2.12711E-01
      21    -1     0     0   501   502  0.000000000E+00  0.000000000E+00  1.152982620E+01  1.152982620E+01  0.000000000E+00  0.00000E+00  9.000E+00
      21    -1     0     0   512   503  0.000000000E+00  0.000000000E+00 -8.727732135E+02  8.727732135E+02  0.000000000E+00  0.00000E+00  9.000E+00
      25     1     1     2     0     0  6.014798790E+00 -6.358031131E+00 -6.187941754E+02  6.313530965E+02  1.249955944E+02  0.00000E+00  9.000E+00
       5     1     1     2   501     0  2.197644178E+00 -2.524631707E+00  3.287946700E+00  6.676563389E+00  4.750000000E+00  0.00000E+00  9.000E+00
      -5     1     1     2     0   503 -2.736621064E+00  6.113848071E+00 -1.939853775E+02  1.941591033E+02  4.750000000E+00  0.00000E+00  9.000E+00
      21     1     1     2   512   502 -5.475821904E+00  2.768814767E+00 -5.175178116E+01  5.211427649E+01  6.743495762E-07  0.00000E+00  9.000E+00
#rwgt            1           9   1.3853589638461379E-004           3     2446436           0
</event>
<event>
      6   9999  3.45752E-01  1.10015E+01 -1.00000E+00  1.82930E-01
      21    -1     0     0   501   502  0.000000000E+00  0.000000000E+00  1.884163340E+01  1.884163340E+01  0.000000000E+00  0.00000E+00  9.000E+00
      21    -1     0     0   511   503  0.000000000E+00  0.000000000E+00 -1.014663116E+03  1.014663116E+03  0.000000000E+00  0.00000E+00  9.000E+00
      25     1     1     2     0     0  2.308832593E+00  6.539921274E+00 -8.491306999E+02  8.583103283E+02  1.250022916E+02  0.00000E+00  9.000E+00
       5     1     1     2   501     0  7.403465886E-01 -1.552990548E+00  1.311843763E+01  1.405758864E+01  4.750000000E+00  0.00000E+00  9.000E+00
      -5     1     1     2     0   503  3.460181891E+00  3.882242699E+00 -1.049083563E+02  1.051445215E+02  4.750000000E+00  0.00000E+00  9.000E+00
      21     1     1     2   511   502 -6.509361073E+00 -8.869173425E+00 -5.490086370E+01  5.599231066E+01  6.743495762E-07  0.00000E+00  9.000E+00
#rwgt            1           9   2.9070061052481974E-004           3     2449729           0
</event>
<event>
      6   9999  3.45752E-01  1.65129E+01 -1.00000E+00  1.66832E-01
      21    -1     0     0   501   502  0.000000000E+00  0.000000000E+00  1.985467074E+02  1.985467074E+02  0.000000000E+00  0.00000E+00  9.000E+00
      21    -1     0     0   512   503  0.000000000E+00  0.000000000E+00 -2.553121958E+02  2.553121958E+02  0.000000000E+00  0.00000E+00  9.000E+00
      25     1     1     2     0     0  1.640718753E+01 -1.335849833E+01 -1.845721634E+02  2.239197216E+02  1.250020518E+02  0.00000E+00  9.000E+00
       5     1     1     2   501     0  1.686526156E+00  4.005664255E+00  1.751221773E+02  1.752404896E+02  4.750000000E+00  0.00000E+00  9.000E+00
      -5     1     1     2     0   503 -6.806552109E+00 -2.700145146E+00 -2.778155501E+01  2.912039207E+01  4.750000000E+00  0.00000E+00  9.000E+00
      21     1     1     2   512   502 -1.128716158E+01  1.205297922E+01 -1.953394728E+01  2.557829980E+01  0.000000000E+00  0.00000E+00  9.000E+00
#rwgt            1           9   4.5350226115227679E-003           3     2452245           0
</event>
<event>
      6   9999  3.45752E-01  3.92189E+01 -1.00000E+00  1.40684E-01
      21    -1     0     0   502   511  0.000000000E+00  0.000000000E+00  4.320123557E+01  4.320123557E+01  0.000000000E+00  0.00000E+00  9.000E+00
      21    -1     0     0   501   502  0.000000000E+00  0.000000000E+00 -1.274936472E+03  1.274936472E+03  0.000000000E+00  0.00000E+00  9.000E+00
      25     1     1     2     0     0  1.292050129E+02  1.085453509E+02 -6.417998942E+02  6.752837308E+02  1.249999376E+02  0.00000E+00  9.000E+00
       5     1     1     2   501     0 -8.338757318E-01  7.572167374E-01 -5.746115819E+01  5.766815349E+01  4.750000000E+00  0.00000E+00  9.000E+00
      -5     1     1     2     0   503 -1.359220896E+02 -1.477877050E+02 -4.737959437E+02  5.146077914E+02  4.750000000E+00  0.00000E+00  9.000E+00
      21     1     1     2   503   511  7.550952484E+00  3.848513740E+01 -5.867824007E+01  7.057803158E+01  6.743495762E-07  0.00000E+00  9.000E+00
#rwgt            1           9   5.2383750433768535E-002           3     2455402           0
</event>
<event>
      6   9999  3.45752E-01  7.52414E+00 -1.00000E+00  2.01222E-01
      21    -1     0     0   501   502  0.000000000E+00  0.000000000E+00  8.251640712E+01  8.251640712E+01  0.000000000E+00  0.00000E+00  9.000E+00
      21    -1     0     0   502   512  0.000000000E+00  0.000000000E+00 -8.986899744E+02  8.986899744E+02  0.000000000E+00  0.00000E+00  9.000E+00
      25     1     1     2     0     0  4.099840927E+00 -1.563017744E+01 -7.909974237E+02  8.009768963E+02  1.250038116E+02  0.00000E+00  9.000E+00
       5     1     1     2   501     0 -5.108757156E-01 -4.389861227E+00  7.542660957E+01  7.570513725E+01  4.750000000E+00  0.00000E+00  9.000E+00
      -5     1     1     2     0   503 -3.099870529E+00  1.251181594E+01 -2.481266139E+01  2.836168896E+01  4.750000000E+00  0.00000E+00  9.000E+00
      21     1     1     2   503   512 -4.890946820E-01  7.508222731E+00 -7.579009169E+01  7.616265897E+01  9.536743164E-07  0.00000E+00  9.000E+00
#rwgt            1           9   2.9200644180008895E-003           3     2457100           0
</event>
<event>
      6   9999  3.45752E-01  4.32589E+01 -1.00000E+00  1.38241E-01
      21    -1     0     0   501   502  0.000000000E+00  0.000000000E+00  7.202724749E+01  7.202724749E+01  0.000000000E+00  0.00000E+00  9.000E+00
      21    -1     0     0   502   511  0.000000000E+00  0.000000000E+00 -1.803775348E+03  1.803775348E+03  0.000000000E+00  0.00000E+00  9.000E+00
      25     1     1     2     0     0 -7.294732293E+01 -6.041401478E+01 -1.325970062E+03  1.335213028E+03  1.250042403E+02  0.00000E+00  9.000E+00
       5     1     1     2   501     0 -2.602310653E+00 -3.023708200E+00  6.186163021E+01  6.217184752E+01  4.750000000E+00  0.00000E+00  9.000E+00
      -5     1     1     2     0   503  4.501851693E+01  3.279159910E+01 -2.176741965E+02  2.247366774E+02  4.750000000E+00  0.00000E+00  9.000E+00
      21     1     1     2   503   511  3.053111665E+01  3.064612388E+01 -2.499654721E+02  2.536810423E+02  4.672030912E-06  0.00000E+00  9.000E+00
#rwgt            1           9   2.3674892924342914E-004           3     2462056           0
</event>
<event>
      6   9999  3.45752E-01  3.78158E+00 -1.00000E+00  2.53008E-01
      21    -1     0     0   512   502  0.000000000E+00  0.000000000E+00  5.365504850E+01  5.365504850E+01  0.000000000E+00  0.00000E+00  9.000E+00
      21    -1     0     0   502   503  0.000000000E+00  0.000000000E+00 -1.909171715E+03  1.909171715E+03  0.000000000E+00  0.00000E+00  9.000E+00
      25     1     1     2     0     0 -2.171304903E+01  8.725006410E+00 -1.084595932E+03  1.092024896E+03  1.249898161E+02  0.00000E+00  9.000E+00
       5     1     1     2   501     0  9.818546915E-01 -1.873890418E+00  3.296417698E+01  3.337176903E+01  4.750000000E+00  0.00000E+00  9.000E+00
      -5     1     1     2     0   503  2.310369028E+01 -9.795871477E+00 -8.202430332E+02  8.206405642E+02  4.750000000E+00  0.00000E+00  9.000E+00
      21     1     1     2   512   501 -2.372495936E+00  2.944755485E+00  1.635812194E+01  1.678953470E+01  1.390207266E-06  0.00000E+00  9.000E+00
#rwgt            1           9   2.2294463446905312E-002           3     2463877           0
</event>
<event>
      6   9999 -3.45752E-01  1.24574E+01 -1.00000E+00  1.77672E-01
      21    -1     0     0   501   502  0.000000000E+00  0.000000000E+00  2.801425766E+03  2.801425766E+03  0.000000000E+00  0.00000E+00  9.000E+00
      21    -1     0     0   511   503  0.000000000E+00  0.000000000E+00 -1.026480083E+01  1.026480083E+01  0.000000000E+00  0.00000E+00  9.000E+00
      25     1     1     2     0     0  1.353395101E+01 -2.057703873E+00  8.091711931E+02  8.188835831E+02  1.249996039E+02  0.00000E+00  9.000E+00
       5     1     1     2   501     0 -3.260781264E+00  5.662632796E-01  1.528867695E+03  1.528878656E+03  4.750000000E+00  0.00000E+00  9.000E+00
      -5     1     1     2     0   503 -1.441558850E+01  1.323990549E+01  4.508081728E+02  4.512578813E+02  4.750000000E+00  0.00000E+00  9.000E+00
      21     1     1     2   511   502  4.142418757E+00 -1.174846490E+01  2.313904304E+00  1.267044647E+01  1.795079749E-06  0.00000E+00  9.000E+00
#rwgt            1           9  -1.5185662383853188E-002           3     2470980           0
</event>
<event>
      6   9999 -3.45752E-01  7.17754E+00 -1.00000E+00  2.03762E-01
      21    -1     0     0   501   512  0.000000000E+00  0.000000000E+00  1.617569641E+01  1.617569641E+01  0.000000000E+00  0.00000E+00  9.000E+00
      21    -1     0     0   502   503  0.000000000E+00  0.000000000E+00 -8.386472406E+02  8.386472406E+02  0.000000000E+00  0.00000E+00  9.000E+00
      25     1     1     2     0     0 -1.139518056E+01 -7.987908132E+00 -8.011109063E+02  8.109238478E+02  1.250005840E+02  0.00000E+00  9.000E+00
       5     1     1     2   501     0  6.449885443E-01 -1.371912206E+00  8.171694561E+00  9.572734475E+00  4.750000000E+00  0.00000E+00  9.000E+00
      -5     1     1     2     0   503  5.990225200E+00  3.987693045E+00 -8.519234810E+00  1.212123573E+01  4.750000000E+00  0.00000E+00  9.000E+00
      21     1     1     2   502   512  4.759966812E+00  5.372127293E+00 -2.101309767E+01  2.220511899E+01  4.768371582E-07  0.00000E+00  9.000E+00
#rwgt            1           9  -4.5945103358088137E-002           3     2473252           0
</event>
<event>
      6   9999 -3.45752E-01  6.11171E+00 -1.00000E+00  2.12948E-01
      21    -1     0     0   501   502  0.000000000E+00  0.000000000E+00  1.197842293E+01  1.197842293E+01  0.000000000E+00  0.00000E+00  9.000E+00
      21    -1     0     0   511   503  0.000000000E+00  0.000000000E+00 -9.374309016E+02  9.374309016E+02  0.000000000E+00  0.00000E+00  9.000E+00
      25     1     1     2     0     0 -3.644072500E+00 -8.374302728E+00 -7.722724654E+02  7.823765155E+02  1.249993718E+02  0.00000E+00  9.000E+00
       5     1     1     2   501     0 -3.201175942E+00 -3.297891566E+00  4.884152168E+00  8.218336729E+00  4.750000000E+00  0.00000E+00  9.000E+00
      -5     1     1     2     0   503  2.243893056E+00  7.649690678E+00 -9.990561641E+01  1.003356742E+02  4.750000000E+00  0.00000E+00  9.000E+00
      21     1     1     2   511   502  4.601355385E+00  4.022503615E+00 -5.815854909E+01  5.847879820E+01  6.743495762E-07  0.00000E+00  9.000E+00
#rwgt            1           9  -2.4036561155348871E-002           3     2477639           0
</event>
<event>
      6   9999  3.45752E-01  3.09423E+00 -1.00000E+00  2.73446E-01
      21    -1     0     0   512   502  0.000000000E+00  0.000000000E+00  1.166364254E+01  1.166364254E+01  0.000000000E+00  0.00000E+00  9.000E+00
      21    -1     0     0   502   503  0.000000000E+00  0.000000000E+00 -7.411217161E+02  7.411217161E+02  0.000000000E+00  0.00000E+00  9.000E+00
      25     1     1     2     0     0 -1.218823292E+01  1.265574253E+01 -6.456360348E+02  6.578608952E+02  1.250053886E+02  0.00000E+00  9.000E+00
       5     1     1     2   501     0 -4.885505067E-01 -2.044436177E+00  1.980077975E+00  5.558921628E+00  4.750000000E+00  0.00000E+00  9.000E+00
      -5     1     1     2     0   503  1.459903916E+01 -1.303600508E+01 -8.213095012E+01  8.456432369E+01  4.750000000E+00  0.00000E+00  9.000E+00
      21     1     1     2   512   501 -1.922255737E+00  2.424698723E+00 -3.671166572E+00  4.801218076E+00  1.397852826E-07  0.00000E+00  9.000E+00
#rwgt            1           9   2.6465167774880255E-002           3     2481661           0
</event>
<event>
      6   9999  3.45752E-01  1.84501E+01 -1.00000E+00  1.62931E-01
      21    -1     0     0   501   502  0.000000000E+00  0.000000000E+00  3.248448377E+02  3.248448377E+02  0.000000000E+00  0.00000E+00  9.000E+00
      21    -1     0     0   502   511  0.000000000E+00  0.000000000E+00 -2.833506631E+01  2.833506631E+01  0.000000000E+00  0.00000E+00  9.000E+00
      25     1     1     2     0     0  3.174816776E+01 -2.986314504E+01  2.121889234E+02  2.501023582E+02  1.250091868E+02  0.00000E+00  9.000E+00
       5     1     1     2   501     0  1.252868864E+00 -2.859231899E-01  3.785039353E+01  3.816891697E+01  4.750000000E+00  0.00000E+00  9.000E+00
      -5     1     1     2     0   503 -1.834721077E+01  1.893868472E+01  2.568367306E+01  3.711478794E+01  4.750000000E+00  0.00000E+00  9.000E+00
      21     1     1     2   503   511 -1.465382585E+01  1.121038351E+01  2.078678144E+01  2.779384092E+01  0.000000000E+00  0.00000E+00  9.000E+00
#rwgt            1           9   8.6101819487821888E-005           3     2487251           0
</event>
<event>
      6   9999  3.45752E-01  5.33709E+00 -1.00000E+00  2.21395E-01
      21    -1     0     0   501   512  0.000000000E+00  0.000000000E+00  2.211361262E+01  2.211361262E+01  0.000000000E+00  0.00000E+00  9.000E+00
      21    -1     0     0   502   503  0.000000000E+00  0.000000000E+00 -9.096892921E+02  9.096892921E+02  0.000000000E+00  0.00000E+00  9.000E+00
      25     1     1     2     0     0  1.496595524E+01  2.875598433E+00 -3.650184285E+02  3.861253634E+02  1.249883765E+02  0.00000E+00  9.000E+00
       5     1     1     2   501     0 -9.823809662E-02  4.201294969E+00  7.845550466E+00  1.008839394E+01  4.750000000E+00  0.00000E+00  9.000E+00
      -5     1     1     2     0   503 -1.169067537E+01 -2.788426111E+00 -5.300851007E+02  5.302426084E+02  4.750000000E+00  0.00000E+00  9.000E+00
      21     1     1     2   502   512 -3.177041775E+00 -4.288467290E+00 -3.177007797E-01  5.346539060E+00  1.535072757E-07  0.00000E+00  9.000E+00
#rwgt            1           9   1.2251473269534968E-004           3     2489793           0
</event>
<event>
      6   9999  3.45752E-01  3.77180E+00 -1.00000E+00  2.53251E-01
      21    -1     0     0   501   511  0.000000000E+00  0.000000000E+00  1.152588718E+01  1.152588718E+01  0.000000000E+00  0.00000E+00  9.000E+00
      21    -1     0     0   502   503  0.000000000E+00  0.000000000E+00 -7.740046436E+02  7.740046436E+02  0.000000000E+00  0.00000E+00  9.000E+00
      25     1     1     2     0     0 -6.032458760E+00 -2.173454222E+01 -6.785941436E+02  6.903783336E+02  1.249938031E+02  0.00000E+00  9.000E+00
       5     1     1     2   501     0  9.550778803E-01  7.920753309E-01 -1.285237747E+00  5.074829372E+00  4.750000000E+00  0.00000E+00  9.000E+00
      -5     1     1     2     0   503  8.405756700E+00  2.271683939E+01 -8.269914794E+01  8.630424733E+01  4.750000000E+00  0.00000E+00  9.000E+00
      21     1     1     2   502   511 -3.328375820E+00 -1.774372508E+00  9.977293144E-02  3.773120464E+00  2.300687233E-07  0.00000E+00  9.000E+00
#rwgt            1           9   3.2900879149430477E-004           3     2494392           0
</event>
<event>
      6   9999 -3.45752E-01  9.08049E+00 -1.00000E+00  1.91717E-01
      21    -1     0     0   502   512  0.000000000E+00  0.000000000E+00  2.170795138E+01  2.170795138E+01  0.000000000E+00  0.00000E+00  9.000E+00
      21    -1     0     0   501   502  0.000000000E+00  0.000000000E+00 -8.882812920E+02  8.882812920E+02  0.000000000E+00  0.00000E+00  9.000E+00
      25     1     1     2     0     0  4.293258430E+00  1.660186029E+01 -2.101499541E+02  2.451153342E+02  1.249978802E+02  0.00000E+00  9.000E+00
       5     1     1     2   501     0  2.031292632E+00 -1.912877939E+01 -6.400941484E+02  6.404007477E+02  4.750000000E+00  0.00000E+00  9.000E+00
      -5     1     1     2     0   503  2.573279208E+00  7.147625252E-01 -1.410957263E+01  1.512531623E+01  4.750000000E+00  0.00000E+00  9.000E+00
      21     1     1     2   503   512 -8.897830270E+00  1.812156570E+00 -2.219665509E+00  9.347845202E+00  3.305237444E-07  0.00000E+00  9.000E+00
#rwgt            1           9  -1.7218041336290881E-004           3     2499122           0
</event>
<event>
      6   9999  3.45752E-01  1.08999E+01 -1.00000E+00  1.83336E-01
      21    -1     0     0   501   511  0.000000000E+00  0.000000000E+00  1.120771166E+03  1.120771166E+03  0.000000000E+00  0.00000E+00  9.000E+00
      21    -1     0     0   502   503  0.000000000E+00  0.000000000E+00 -5.603157329E+00  5.603157329E+00  0.000000000E+00  0.00000E+00  9.000E+00
      25     1     1     2     0     0  1.137449019E+01  9.290371938E-01  8.324339552E+02  8.418443398E+02  1.250014428E+02  0.00000E+00  9.000E+00
       5     1     1     2   501     0  7.609776103E-01 -7.846165190E-01  1.235222193E+02  1.236183476E+02  4.750000000E+00  0.00000E+00  9.000E+00
      -5     1     1     2     0   503 -2.639011555E+00 -5.494726130E+00  2.298260789E+01  2.424704441E+01  4.750000000E+00  0.00000E+00  9.000E+00
      21     1     1     2   502   511 -9.496456241E+00  5.350305455E+00  1.362292267E+02  1.366645919E+02  1.907348633E-06  0.00000E+00  9.000E+00
#rwgt            1           9   1.4107460360764582E-002           3     2502798           0
</event>
<event>
      6   9999 -3.45752E-01  7.64950E+00 -1.00000E+00  2.00347E-01
      21    -1     0     0   501   502  0.000000000E+00  0.000000000E+00  2.650546411E+01  2.650546411E+01  0.000000000E+00  0.00000E+00  9.000E+00
      21    -1     0     0   502   512  0.000000000E+00  0.000000000E+00 -1.153165159E+03  1.153165159E+03  0.000000000E+00  0.00000E+00  9.000E+00
      25     1     1     2     0     0  4.723479610E+00 -1.144337662E+02 -4.899443665E+02  5.181352614E+02  1.236982970E+02  0.00000E+00  9.000E+00
       5     1     1     2   501     0 -3.723798808E-01 -2.888906494E+00  5.839984679E+00  8.071701713E+00  4.750000000E+00  0.00000E+00  9.000E+00
      -5     1     1     2     0   503 -4.546906972E+00  1.096756795E+02 -5.689481667E+02  5.794601004E+02  4.750000000E+00  0.00000E+00  9.000E+00
      21     1     1     2   503   512  1.958072435E-01  7.646993255E+00 -7.360714618E+01  7.400355948E+01  9.536743164E-07  0.00000E+00  9.000E+00
#rwgt            1           9  -3.5716205883593911E-004           3     2504953           0
</event>
<event>
      6   9999  3.45752E-01  5.45355E+00 -1.00000E+00  2.20002E-01
      21    -1     0     0   501   502  0.000000000E+00  0.000000000E+00  5.470844747E+01  5.470844747E+01  0.000000000E+00  0.00000E+00  9.000E+00
       2    -1     0     0   502     0  0.000000000E+00  0.000000000E+00 -2.821739819E+03  2.821739819E+03  0.000000000E+00  0.00000E+00  9.000E+00
      25     1     1     2     0     0  2.716760161E+01  9.387235170E+00 -7.424197920E+02  7.534176323E+02  1.249991291E+02  0.00000E+00  9.000E+00
       5     1     1     2   501     0  8.877722202E+00  5.424513609E+00  4.775436952E+01  4.910480228E+01  4.750000000E+00  0.00000E+00  9.000E+00
      -5     1     1     2     0   503 -3.921333340E+01 -1.925077650E+01 -6.222263248E+02  6.237759531E+02  4.750000000E+00  0.00000E+00  9.000E+00
       2     1     1     2   503     0  3.168009590E+00  4.439027718E+00 -1.450139625E+03  1.450149879E+03  0.000000000E+00  0.00000E+00  9.000E+00
#rwgt            1           9   1.0450803730008835E-003           3     2509486           0
</event>
<event>
      6   9999  3.45752E-01  5.84275E+00 -1.00000E+00  2.15677E-01
      21    -1     0     0   511   503  0.000000000E+00  0.000000000E+00  1.070036994E+01  1.070036994E+01  0.000000000E+00  0.00000E+00  9.000E+00
      21    -1     0     0   501   502  0.000000000E+00  0.000000000E+00 -7.930904088E+02  7.930904088E+02  0.000000000E+00  0.00000E+00  9.000E+00
      25     1     1     2     0     0  3.943213206E+01  9.565538111E-01 -6.210844297E+02  6.347646665E+02  1.249980199E+02  0.00000E+00  9.000E+00
       5     1     1     2   501     0 -1.456033280E+01 -4.766807150E+00 -9.423406849E+01  9.558947592E+01  4.750000000E+00  0.00000E+00  9.000E+00
      -5     1     1     2     0   503 -2.037772553E+01  7.648899217E-02 -6.281354605E+01  6.620696048E+01  4.750000000E+00  0.00000E+00  9.000E+00
      21     1     1     2   511   502 -4.494073741E+00  3.733764347E+00 -4.257994662E+00  7.229675894E+00  2.149076030E-07  0.00000E+00  9.000E+00
#rwgt            1           9   1.8125913062199534E-002           3     2515648           0
</event>
<event>
      6   9999  3.45752E-01  9.14203E+00 -1.00000E+00  1.91393E-01
      21    -1     0     0   502   512  0.000000000E+00  0.000000000E+00  5.235832540E+01  5.235832540E+01  0.000000000E+00  0.00000E+00  9.000E+00
      21    -1     0     0   501   502  0.000000000E+00  0.000000000E+00 -4.457439614E+02  4.457439614E+02  0.000000000E+00  0.00000E+00  9.000E+00
      25     1     1     2     0     0  3.808204147E+00 -6.998403951E+00 -4.022541599E+02  4.213037712E+02  1.249999135E+02  0.00000E+00  9.000E+00
       5     1     1     2   501     0 -1.891476600E-01  3.266056750E+00 -1.423782174E+01  1.536167215E+01  4.750000000E+00  0.00000E+00  9.000E+00
      -5     1     1     2     0   503  3.501529663E+00 -2.001242327E+00 -1.814473522E+01  1.918487939E+01  4.750000000E+00  0.00000E+00  9.000E+00
      21     1     1     2   503   512 -7.120586150E+00  5.733589528E+00  4.125108087E+01  4.225196408E+01  1.784161275E-06  0.00000E+00  9.000E+00
#rwgt            1           9   430.32880775886912                3     2519092           0
</event>
<event>
      6   9999  3.45752E-01  3.14025E+01 -1.00000E+00  1.46566E-01
      21    -1     0     0   501   502  0.000000000E+00  0.000000000E+00  2.164445930E+02  2.164445930E+02  0.000000000E+00  0.00000E+00  9.000E+00
      21    -1     0     0   511   503  0.000000000E+00  0.000000000E+00 -1.233516304E+03  1.233516304E+03  0.000000000E+00  0.00000E+00  9.000E+00
      25     1     1     2     0     0  4.499320212E+01 -7.081047268E+00  1.455873293E+01  1.338412462E+02  1.250079718E+02  0.00000E+00  9.000E+00
       5     1     1     2   501     0 -4.123520963E+00 -4.475128324E+00  1.301204763E+02  1.303492656E+02  4.750000000E+00  0.00000E+00  9.000E+00
      -5     1     1     2     0   503 -4.748959363E+01 -1.914067547E+01 -4.428330732E+01  6.786162957E+01  4.750000000E+00  0.00000E+00  9.000E+00
      21     1     1     2   511   502  6.619912473E+00  3.069685106E+01 -1.117467613E+03  1.117908755E+03  1.525878906E-05  0.00000E+00  9.000E+00
#rwgt            1           9   1.5432449141877700                3     2521704           0
</event>
<event>
      6   9999  3.45752E-01  1.11103E+01 -1.00000E+00  1.82503E-01
      21    -1     0     0   502   512  0.000000000E+00  0.000000000E+00  3.040082278E+03  3.040082278E+03  0.000000000E+00  0.00000E+00  9.000E+00
      21    -1     0     0   501   502  0.000000000E+00  0.000000000E+00 -1.525694148E+03  1.525694148E+03  0.000000000E+00  0.00000E+00  9.000E+00
      25     1     1     2     0     0 -2.090407807E+01 -1.705754568E+01 -1.481729211E+03  1.487237248E+03  1.250009458E+02  0.00000E+00  9.000E+00
       5     1     1     2   501     0  2.901560065E+00  3.076716507E+00 -1.398554379E+01  1.536369650E+01  4.750000000E+00  0.00000E+00  9.000E+00
      -5     1     1     2     0   503  7.204192035E+00  1.136663474E+01 -2.460667010E+01  2.844558809E+01  4.750000000E+00  0.00000E+00  9.000E+00
      21     1     1     2   503   512  1.079832597E+01  2.614194438E+00  3.034709556E+03  3.034729893E+03  4.315837288E-05  0.00000E+00  9.000E+00
#rwgt            1           9   1.6504768454053641E-003           3     2523168           0
</event>
<event>
      6   9999  3.45752E-01  6.49858E+00 -1.00000E+00  2.09340E-01
      21    -1     0     0   501   511  0.000000000E+00  0.000000000E+00  8.449522993E+00  8.449522993E+00  0.000000000E+00  0.00000E+00  9.000E+00
      21    -1     0     0   502   503  0.000000000E+00  0.000000000E+00 -1.378441986E+03  1.378441986E+03  0.000000000E+00  0.00000E+00  9.000E+00
      25     1     1     2     0     0 -3.158306449E+00 -8.309321081E+00 -1.111827838E+03  1.118867860E+03  1.250005003E+02  0.00000E+00  9.000E+00
       5     1     1     2   501     0 -3.085948666E-01 -1.162682386E+00  3.045002418E+00  5.769020788E+00  4.750000000E+00  0.00000E+00  9.000E+00
      -5     1     1     2     0   503  9.255069201E+00  6.517578351E+00 -2.322765846E+02  2.326007510E+02  4.750000000E+00  0.00000E+00  9.000E+00
      21     1     1     2   502   511 -5.788167885E+00  2.954425116E+00 -2.893304205E+01  2.965387728E+01  3.371747881E-07  0.00000E+00  9.000E+00
#rwgt            1           9   26.032906089127216                3     2525255           0
</event>
<event>
      6   9999  3.45752E-01  7.92039E+00 -1.00000E+00  1.98531E-01
      21    -1     0     0   512   502  0.000000000E+00  0.000000000E+00  2.247095576E+02  2.247095576E+02  0.000000000E+00  0.00000E+00  9.000E+00
      21    -1     0     0   502   503  0.000000000E+00  0.000000000E+00 -1.136090790E+03  1.136090790E+03  0.000000000E+00  0.00000E+00  9.000E+00
      25     1     1     2     0     0 -2.733886991E+00 -2.011865942E+00 -1.097619443E+03  1.104720372E+03  1.250085496E+02  0.00000E+00  9.000E+00
       5     1     1     2   501     0  2.884025053E-01 -1.552525704E+00 -3.845655874E+00  6.312296030E+00  4.750000000E+00  0.00000E+00  9.000E+00
      -5     1     1     2     0   503  7.433327382E+00 -2.588162946E+00 -2.906063694E+01  3.048009289E+01  4.750000000E+00  0.00000E+00  9.000E+00
      21     1     1     2   512   501 -4.987842896E+00  6.152554592E+00  2.191445030E+02  2.192875868E+02  7.136645101E-06  0.00000E+00  9.000E+00
#rwgt            1           9   4.7886575470260990E-004           3     2528679           0
</event>
<event>
      6   9999  3.45752E-01  1.64918E+01 -1.00000E+00  1.66878E-01
      21    -1     0     0   501   502  0.000000000E+00  0.000000000E+00  2.107316086E+03  2.107316086E+03  0.000000000E+00  0.00000E+00  9.000E+00
      21    -1     0     0   502   511  0.000000000E+00  0.000000000E+00 -9.691524461E+00  9.691524461E+00  0.000000000E+00  0.00000E+00  9.000E+00
      25     1     1     2     0     0  5.564190430E+00 -5.719124090E+00  7.669126684E+02  7.770746695E+02  1.250053297E+02  0.00000E+00  9.000E+00
       5     1     1     2   501     0  2.409523795E+00  6.490762448E+00  1.269649053E+03  1.269676815E+03  4.750000000E+00  0.00000E+00  9.000E+00
      -5     1     1     2     0   503 -6.397575065E+00  1.564467580E+01  3.844496140E+01  4.226419767E+01  4.750000000E+00  0.00000E+00  9.000E+00
      21     1     1     2   503   511 -1.576139160E+00 -1.641631416E+01  2.261787962E+01  2.799192854E+01  1.410503336E-06  0.00000E+00  9.000E+00
#rwgt            1           9   3.1699202240269009E-002           3     2531566           0
</event>
<event>
      6   9999  3.45752E-01  5.98930E+00 -1.00000E+00  2.14166E-01
      21    -1     0     0   501   512  0.000000000E+00  0.000000000E+00  3.568327125E+01  3.568327125E+01  0.000000000E+00  0.00000E+00  9.000E+00
      21    -1     0     0   502   503  0.000000000E+00  0.000000000E+00 -1.000225219E+03  1.000225219E+03  0.000000000E+00  0.00000E+00  9.000E+00
      25     1     1     2     0     0  3.039689534E+01 -5.503087797E+01 -3.792837995E+02  4.042696777E+02  1.250016120E+02  0.00000E+00  9.000E+00
       5     1     1     2   501     0  1.528663037E+00  2.423613986E+00  1.258641324E+01  1.375467243E+01  4.750000000E+00  0.00000E+00  9.000E+00
      -5     1     1     2     0   503 -3.037780090E+01  5.839312445E+01 -6.049797003E+02  6.085684580E+02  4.750000000E+00  0.00000E+00  9.000E+00
      21     1     1     2   502   512 -1.547757473E+00 -5.785860458E+00  7.135138593E+00  9.315682325E+00  6.419616708E-07  0.00000E+00  9.000E+00
#rwgt            1           9   3.6207080424833734E-004           3     2533512           0
</event>
<event>
      6   9999  3.45752E-01  2.75028E+01 -1.00000E+00  1.50322E-01
      21    -1     0     0   511   503  0.000000000E+00  0.000000000E+00  8.863665079E+00  8.863665079E+00  0.000000000E+00  0.00000E+00  9.000E+00
      21    -1     0     0   501   502  0.000000000E+00  0.000000000E+00 -2.867751440E+03  2.867751440E+03  0.000000000E+00  0.00000E+00  9.000E+00
      25     1     1     2     0     0  1.403284228E+01  1.699204657E+01 -2.754275646E+03  2.757199173E+03  1.250091786E+02  0.00000E+00  9.000E+00
       5     1     1     2   501     0  8.035095955E-01  9.873278985E-01 -4.719203890E+01  4.744756558E+01  4.750000000E+00  0.00000E+00  9.000E+00
      -5     1     1     2     0   503  1.334264807E+00  4.267364956E+00 -3.736452474E+01  3.792968330E+01  4.750000000E+00  0.00000E+00  9.000E+00
      21     1     1     2   511   502 -1.617061669E+01 -2.224673942E+01 -2.005556525E+01  3.403868324E+01  2.728825365E-06  0.00000E+00  9.000E+00
#rwgt            1           9   3.9725016287661403E-004           3     2538004           0
</event>
<event>
      6   9999  3.45752E-01  4.32049E+00 -1.00000E+00  2.41120E-01
      21    -1     0     0   501   512  0.000000000E+00  0.000000000E+00  2.169184071E+01  2.169184071E+01  0.000000000E+00  0.00000E+00  9.000E+00
      21    -1     0     0   502   503  0.000000000E+00  0.000000000E+00 -9.822352070E+02  9.822352070E+02  0.000000000E+00  0.00000E+00  9.000E+00
      25     1     1     2     0     0  4.592513875E+01  3.976949350E+01 -5.871492483E+02  6.033771274E+02  1.250159475E+02  0.00000E+00  9.000E+00
       5     1     1     2   501     0  3.286952892E+00 -1.451762784E+00  8.020641989E+00  9.990238857E+00  4.750000000E+00  0.00000E+00  9.000E+00
      -5     1     1     2     0   503 -4.522506766E+01 -3.998214438E+01 -3.814630564E+02  3.862389215E+02  4.750000000E+00  0.00000E+00  9.000E+00
      21     1     1     2   502   512 -3.987023981E+00  1.664413663E+00  4.829647016E-02  4.320759843E+00  1.074759971E-07  0.00000E+00  9.000E+00
#rwgt            1           9   3.3135405022581487E-005           3     2539252           0
</event>
<event>
      6   9999  3.45752E-01  5.78093E+00 -1.00000E+00  2.16333E-01
      21    -1     0     0   501   502  0.000000000E+00  0.000000000E+00  3.969364538E+02  3.969364538E+02  0.000000000E+00  0.00000E+00  9.000E+00
      21    -1     0     0   502   511  0.000000000E+00  0.000000000E+00 -2.210006989E+02  2.210006989E+02  0.000000000E+00  0.00000E+00  9.000E+00
      25     1     1     2     0     0 -1.549388986E+00 -6.271574004E-01  1.455625070E+02  1.918760929E+02  1.250007906E+02  0.00000E+00  9.000E+00
       5     1     1     2   501     0 -3.027772910E+00 -2.014626578E-02  2.186508029E+02  2.187233502E+02  4.750000000E+00  0.00000E+00  9.000E+00
      -5     1     1     2     0   503 -9.560365768E-01 -1.026873738E+00  8.841313160E+00  1.013409068E+01  4.750000000E+00  0.00000E+00  9.000E+00
      21     1     1     2   503   511  5.533198473E+00  1.674177404E+00 -1.971188681E+02  1.972036190E+02  2.697398305E-06  0.00000E+00  9.000E+00
#rwgt            1           9   2.1558014532695870E-005           3     2544915           0
</event>
<event>
      6   9999  3.45752E-01  1.43841E+01 -1.00000E+00  1.71965E-01
      21    -1     0     0   501   502  0.000000000E+00  0.000000000E+00  3.428975393E+03  3.428975393E+03  0.000000000E+00  0.00000E+00  9.000E+00
      -3    -1     0     0     0   503  0.000000000E+00  0.000000000E+00 -2.601164450E+01  2.601164450E+01  0.000000000E+00  0.00000E+00  9.000E+00
      25     1     1     2     0     0 -3.281531153E+01  1.989816574E+01  2.265707704E+03  2.269477706E+03  1.249994993E+02  0.00000E+00  9.000E+00
       5     1     1     2   501     0  1.225907686E+00 -9.450459338E-02  8.838673408E+02  8.838809594E+02  4.750000000E+00  0.00000E+00  9.000E+00
      -5     1     1     2     0   503  4.141770311E+01 -9.300928326E+00  2.735483811E+02  2.768631660E+02  4.750000000E+00  0.00000E+00  9.000E+00
      -3     1     1     2     0   502 -9.828299269E+00 -1.050273282E+01 -2.015967731E+01  2.476520649E+01  2.274368290E-06  0.00000E+00  9.000E+00
#rwgt            1           9   7.8858491657655839E-003           3     2548355           0
</event>
<event>
      6   9999  3.45752E-01  1.75165E+01 -1.00000E+00  1.64734E-01
      21    -1     0     0   511   502  0.000000000E+00  0.000000000E+00  3.048712503E+01  3.048712503E+01  0.000000000E+00  0.00000E+00  9.000E+00
       2    -1     0     0   501     0  0.000000000E+00  0.000000000E+00 -1.111888075E+03  1.111888075E+03  0.000000000E+00  0.00000E+00  9.000E+00
      25     1     1     2     0     0  5.083372180E+01  8.084837048E+01 -2.872172185E+02  3.274865480E+02  1.250327248E+02  0.00000E+00  9.000E+00
       5     1     1     2   501     0 -5.103273003E+01 -4.813318495E+00 -4.255757594E+02  4.286779643E+02  4.750000000E+00  0.00000E+00  9.000E+00
      -5     1     1     2     0   502  1.465228774E+01 -8.593107146E+01 -3.497149046E+02  3.604468276E+02  4.750000000E+00  0.00000E+00  9.000E+00
       2     1     1     2   511     0 -1.445327951E+01  9.896019469E+00 -1.889306784E+01  2.576386039E+01  0.000000000E+00  0.00000E+00  9.000E+00
#rwgt            1           3   1.7172587938643897E-005           3     2550278           0
</event>
<event>
      6   9999  3.45752E-01  1.34348E+01 -1.00000E+00  1.74626E-01
      21    -1     0     0   501   502  0.000000000E+00  0.000000000E+00  1.468043926E+03  1.468043926E+03  0.000000000E+00  0.00000E+00  9.000E+00
      21    -1     0     0   502   512  0.000000000E+00  0.000000000E+00 -5.749817021E+02  5.749817021E+02  0.000000000E+00  0.00000E+00  9.000E+00
      25     1     1     2     0     0 -4.691656144E+00 -3.573634178E+01  6.756481070E+02  6.880585463E+02  1.250004036E+02  0.00000E+00  9.000E+00
       5     1     1     2   501     0 -2.326378886E-01 -8.570612992E-01  6.157347554E+02  6.157537172E+02  4.750000000E+00  0.00000E+00  9.000E+00
      -5     1     1     2     0   503 -5.841366909E+00  2.855635827E+01  1.690870373E+02  1.716466599E+02  4.750000000E+00  0.00000E+00  9.000E+00
      21     1     1     2   503   512  1.076566094E+01  8.037044814E+00 -5.674076759E+02  5.675667046E+02  7.629394531E-06  0.00000E+00  9.000E+00
#rwgt            1           9   2.1163407213134803E-004           3     2555067           0
</event>
<event>
      6   9999  3.45752E-01  1.13362E+01 -1.00000E+00  1.81633E-01
      21    -1     0     0   501   502  0.000000000E+00  0.000000000E+00  7.476970443E+01  7.476970443E+01  0.000000000E+00  0.00000E+00  9.000E+00
      21    -1     0     0   502   511  0.000000000E+00  0.000000000E+00 -1.521483776E+03  1.521483776E+03  0.000000000E+00  0.00000E+00  9.000E+00
      25     1     1     2     0     0  1.643416614E+01 -6.694567849E+00 -1.314854455E+03  1.320902394E+03  1.250039917E+02  0.00000E+00  9.000E+00
       5     1     1     2   501     0  1.565915408E+00  5.681712383E+00  7.079361556E+01  7.119713794E+01  4.750000000E+00  0.00000E+00  9.000E+00
      -5     1     1     2     0   503 -1.019506894E+01 -7.208512550E+00 -1.063065569E+02  1.071426555E+02  4.750000000E+00  0.00000E+00  9.000E+00
      21     1     1     2   503   511 -7.805012613E+00  8.221368016E+00 -9.634667487E+01  9.701129250E+01  1.907348633E-06  0.00000E+00  9.000E+00
#rwgt            1           9   3.0756880670255776E-004           3     2557318           0
</event>
<event>
      6   9999  3.45752E-01  5.41029E+00 -1.00000E+00  2.20514E-01
      21    -1     0     0   512   502  0.000000000E+00  0.000000000E+00  5.794583750E+01  5.794583750E+01  0.000000000E+00  0.00000E+00  9.000E+00
      21    -1     0     0   502   503  0.000000000E+00  0.000000000E+00 -1.205711057E+03  1.205711057E+03  0.000000000E+00  0.00000E+00  9.000E+00
      25     1     1     2     0     0 -3.887318766E+01 -3.301558387E+01 -2.357681033E+02  2.716848331E+02  1.249995860E+02  0.00000E+00  9.000E+00
       5     1     1     2   501     0  1.486673974E+00 -1.124219281E+00  2.183392332E+01  2.242223842E+01  4.750000000E+00  0.00000E+00  9.000E+00
      -5     1     1     2     0   503  3.599668433E+01  2.891107125E+01 -9.507011390E+02  9.518334042E+02  4.750000000E+00  0.00000E+00  9.000E+00
      21     1     1     2   512   501  1.389829357E+00  5.228731897E+00  1.687009909E+01  1.771641911E+01  9.536743164E-07  0.00000E+00  9.000E+00
#rwgt            1           9   1.7690599445747290                3     2561093           0
</event>
<event>
      6   9999  3.45752E-01  1.52773E+01 -1.00000E+00  1.69685E-01
      21    -1     0     0   501   502  0.000000000E+00  0.000000000E+00  7.567366489E+01  7.567366489E+01  0.000000000E+00  0.00000E+00  9.000E+00
      21    -1     0     0   502   511  0.000000000E+00  0.000000000E+00 -7.252943246E+02  7.252943246E+02  0.000000000E+00  0.00000E+00  9.000E+00
      25     1     1     2     0     0 -2.173047720E+01  1.138572986E+00  9.529847853E+00  1.272374649E+02  1.250001779E+02  0.00000E+00  9.000E+00
       5     1     1     2   501     0  7.742508632E+00  4.762844705E+00 -9.199043652E-01  1.029756542E+01  4.750000000E+00  0.00000E+00  9.000E+00
      -5     1     1     2     0   503 -1.411053835E-01 -9.055839960E-02  2.648295950E-01  4.760330479E+00  4.750000000E+00  0.00000E+00  9.000E+00
      21     1     1     2   503   511  1.412907395E+01 -5.810859292E+00 -6.584954328E+02  6.586726288E+02  0.000000000E+00  0.00000E+00  9.000E+00
#rwgt            1           9   4.4898484410685092E-003           3     2567575           0
</event>
<event>
      6   9999  3.45752E-01  1.79533E+00 -1.00000E+00  3.52148E-01
      21    -1     0     0   501   512  0.000000000E+00  0.000000000E+00  4.238363646E+02  4.238363646E+02  0.000000000E+00  0.00000E+00  9.000E+00
      21    -1     0     0   502   503  0.000000000E+00  0.000000000E+00 -1.277785418E+03  1.277785418E+03  0.000000000E+00  0.00000E+00  9.000E+00
      25     1     1     2     0     0 -6.300239298E+00  3.790918399E+00 -1.195557350E+03  1.202096497E+03  1.249981947E+02  0.00000E+00  9.000E+00
       5     1     1     2   501     0  5.667062915E+00  4.290615300E+00  3.996051587E+01  4.086478081E+01  4.750000000E+00  0.00000E+00  9.000E+00
      -5     1     1     2     0   503  2.425154643E+00 -7.971804398E+00 -7.821128320E+01  7.879719766E+01  4.750000000E+00  0.00000E+00  9.000E+00
      21     1     1     2   502   512 -1.791978261E+00 -1.097293007E-01  3.798590638E+02  3.798633065E+02  7.629394531E-06  0.00000E+00  9.000E+00
#rwgt            1           9   7.5804718781286896E-004           3     2569653           0
</event>
<event>
      6   9999  3.45752E-01  8.94982E+00 -1.00000E+00  1.92416E-01
      21    -1     0     0   501   511  0.000000000E+00  0.000000000E+00  2.786589612E+01  2.786589612E+01  0.000000000E+00  0.00000E+00  9.000E+00
      21    -1     0     0   502   503  0.000000000E+00  0.000000000E+00 -2.608575611E+03  2.608575611E+03  0.000000000E+00  0.00000E+00  9.000E+00
      25     1     1     2     0     0 -7.636191758E+01 -1.898038756E+01 -1.775378817E+03  1.781512429E+03  1.250007782E+02  0.00000E+00  9.000E+00
       5     1     1     2   501     0  3.185860479E+00 -2.108549564E+00 -8.025099525E-01  6.148350224E+00  4.750000000E+00  0.00000E+00  9.000E+00
      -5     1     1     2     0   503  7.749994294E+01  1.325290942E+01 -8.237869392E+02  8.275441768E+02  4.750000000E+00  0.00000E+00  9.000E+00
      21     1     1     2   502   511 -4.323885846E+00  7.836027702E+00  1.925855095E+01  2.123655112E+01  1.390207266E-06  0.00000E+00  9.000E+00
#rwgt            1           9   9.5349136159868832E-005           3     2581882           0
</event>
<event>
      6   9999  3.45752E-01  6.82389E+00 -1.00000E+00  2.06559E-01
      21    -1     0     0   501   502  0.000000000E+00  0.000000000E+00  3.912980183E+00  3.912980183E+00  0.000000000E+00  0.00000E+00  9.000E+00
      21    -1     0     0   502   512  0.000000000E+00  0.000000000E+00 -2.733739154E+03  2.733739154E+03  0.000000000E+00  0.00000E+00  9.000E+00
      25     1     1     2     0     0  6.272302759E+00 -1.317044201E+01 -2.133460294E+03  2.137168833E+03  1.249999703E+02  0.00000E+00  9.000E+00
       5     1     1     2   501     0  7.207065667E-01  6.934696021E-02 -2.182479903E+00  5.277304755E+00  4.750000000E+00  0.00000E+00  9.000E+00
      -5     1     1     2     0   503 -7.135234879E+00  6.278688305E+00 -5.715487965E+01  5.813412312E+01  4.750000000E+00  0.00000E+00  9.000E+00
      21     1     1     2   503   512  1.422255537E-01  6.822406745E+00 -5.370285202E+02  5.370718732E+02  7.629394531E-06  0.00000E+00  9.000E+00
#rwgt            1           9   1.0566314934911150E-002           3     2584990           0
</event>
<event>
      6   9999  3.45752E-01  2.58168E+01 -1.00000E+00  1.52184E-01
      21    -1     0     0   501   502  0.000000000E+00  0.000000000E+00  1.283920062E+01  1.283920062E+01  0.000000000E+00  0.00000E+00  9.000E+00
      21    -1     0     0   511   503  0.000000000E+00  0.000000000E+00 -1.600738783E+03  1.600738783E+03  0.000000000E+00  0.00000E+00  9.000E+00
      25     1     1     2     0     0 -3.131264854E+01  7.230262246E+00 -3.540058658E+02  3.767963330E+02  1.249902591E+02  0.00000E+00  9.000E+00
       5     1     1     2   501     0 -1.099341732E+00  1.037938155E+00 -4.473397270E+00  6.697734766E+00  4.750000000E+00  0.00000E+00  9.000E+00
      -5     1     1     2     0   503  1.171729355E+01  7.166668436E+00 -4.140511953E+02  4.143061801E+02  4.750000000E+00  0.00000E+00  9.000E+00
      21     1     1     2   511   502  2.069469673E+01 -1.543486884E+01 -8.153691237E+02  8.157777354E+02  0.000000000E+00  0.00000E+00  9.000E+00
#rwgt            1           9   3.6210475278043953E-003           3     2588143           0
</event>
<event>
      6   9999  3.45752E-01  1.79623E+01 -1.00000E+00  1.63856E-01
      21    -1     0     0   501   502  0.000000000E+00  0.000000000E+00  1.280474004E+02  1.280474004E+02  0.000000000E+00  0.00000E+00  9.000E+00
      -3    -1     0     0     0   503  0.000000000E+00  0.000000000E+00 -1.937983521E+02  1.937983521E+02  0.000000000E+00  0.00000E+00  9.000E+00
      25     1     1     2     0     0  1.514522316E+01  3.572563372E+00  6.305127782E+01  1.408643603E+02  1.250006535E+02  0.00000E+00  9.000E+00
       5     1     1     2   501     0  1.781355250E+00  5.079632295E+00  3.169257424E+00  7.847457129E+00  4.750000000E+00  0.00000E+00  9.000E+00
      -5     1     1     2     0   503 -6.322226002E+00 -2.315025381E+01  1.255384104E+01  2.749665830E+01  4.750000000E+00  0.00000E+00  9.000E+00
      -3     1     1     2     0   502 -1.060435241E+01  1.449805814E+01 -1.445253279E+02  1.456372768E+02  1.907348633E-06  0.00000E+00  9.000E+00
#rwgt            1           9   11245.369779736489                3     2589264           0
</event>
<event>
      6   9999  3.45752E-01  5.59902E+00 -1.00000E+00  2.18329E-01
      21    -1     0     0   511   502  0.000000000E+00  0.000000000E+00  4.656533245E+01  4.656533245E+01  0.000000000E+00  0.00000E+00  9.000E+00
      21    -1     0     0   502   503  0.000000000E+00  0.000000000E+00 -1.963566047E+02  1.963566047E+02  0.000000000E+00  0.00000E+00  9.000E+00
      25     1     1     2     0     0  7.389945397E-01  6.617245876E+00 -1.520566163E+02  1.969497758E+02  1.249946621E+02  0.00000E+00  9.000E+00
       5     1     1     2   501     0  1.536055079E+00 -1.063031701E+00  1.231024077E+01  1.332644099E+01  4.750000000E+00  0.00000E+00  9.000E+00
      -5     1     1     2     0   503  2.921351792E+00 -3.469390439E+00 -2.009510974E+01  2.114111874E+01  4.750000000E+00  0.00000E+00  9.000E+00
      21     1     1     2   511   501 -5.196401411E+00 -2.084823736E+00  1.005021302E+01  1.150460166E+01  0.000000000E+00  0.00000E+00  9.000E+00
#rwgt            1           9   7.1788249355766359E-002           3     2590692           0
</event>
<event>
      6   9999  3.45752E-01  1.51879E+01 -1.00000E+00  1.69904E-01
      21    -1     0     0   501   502  0.000000000E+00  0.000000000E+00  1.598425644E+01  1.598425644E+01  0.000000000E+00  0.00000E+00  9.000E+00
      21    -1     0     0   512   503  0.000000000E+00  0.000000000E+00 -9.673091215E+02  9.673091215E+02  0.000000000E+00  0.00000E+00  9.000E+00
      25     1     1     2     0     0 -8.316226846E+00  2.233266828E+01 -8.430055917E+02  8.525556482E+02  1.249991920E+02  0.00000E+00  9.000E+00
       5     1     1     2   501     0 -5.621595427E+00  5.203535297E-01  7.351107096E+00  1.041510338E+01  4.750000000E+00  0.00000E+00  9.000E+00
      -5     1     1     2     0   503  2.603564498E+00 -1.274325545E+01 -2.682010218E+01  3.018359635E+01  4.750000000E+00  0.00000E+00  9.000E+00
      21     1     1     2   512   502  1.133425777E+01 -1.010976636E+01 -8.885027830E+01  9.013903000E+01  9.536743164E-07  0.00000E+00  9.000E+00
#rwgt            1           9   2.0803245009482167E-002           3     2594208           0
</event>
<event>
      6   9999  3.45752E-01  2.91711E+00 -1.00000E+00  2.80133E-01
      21    -1     0     0   511   502  0.000000000E+00  0.000000000E+00  1.169769426E+01  1.169769426E+01  0.000000000E+00  0.00000E+00  9.000E+00
      21    -1     0     0   502   503  0.000000000E+00  0.000000000E+00 -8.019362723E+02  8.019362723E+02  0.000000000E+00  0.00000E+00  9.000E+00
      25     1     1     2     0     0 -1.891492559E+00  6.759008552E+00 -4.548217039E+02  4.717388245E+02  1.250018971E+02  0.00000E+00  9.000E+00
       5     1     1     2   501     0 -4.475721816E-01 -1.601964723E-01 -1.526428498E+00  5.011832771E+00  4.750000000E+00  0.00000E+00  9.000E+00
      -5     1     1     2     0   503  3.694429658E+00 -4.015689670E+00 -3.338878312E+02  3.339661972E+02  4.750000000E+00  0.00000E+00  9.000E+00
      21     1     1     2   511   501 -1.355364917E+00 -2.583122409E+00 -2.614392424E-03  2.917111975E+00  1.106017166E-07  0.00000E+00  9.000E+00
#rwgt            1           9   6.0715419738895084E-002           3     2596371           0
</event>
<event>
      6   9999  3.45752E-01  8.98420E+00 -1.00000E+00  1.92231E-01
      21    -1     0     0   501   502  0.000000000E+00  0.000000000E+00  4.313575126E+01  4.313575126E+01  0.000000000E+00  0.00000E+00  9.000E+00
       1    -1     0     0   502     0  0.000000000E+00  0.000000000E+00 -1.677483243E+03  1.677483243E+03  0.000000000E+00  0.00000E+00  9.000E+00
      25     1     1     2     0     0  2.279674200E+01  8.650360371E+01 -7.129542898E+02  7.293366126E+02  1.250020414E+02  0.00000E+00  9.000E+00
       5     1     1     2   501     0  2.871792720E+00  2.737593341E+00  3.113344237E+01  3.174264237E+01  4.750000000E+00  0.00000E+00  9.000E+00
      -5     1     1     2     0   503 -3.012189728E+01 -8.143841840E+01 -5.433748790E+02  5.502893478E+02  4.750000000E+00  0.00000E+00  9.000E+00
       1     1     1     2   503     0  4.453362560E+00 -7.802778658E+00 -4.091517653E+02  4.092503913E+02  0.000000000E+00  0.00000E+00  9.000E+00
#rwgt            1           9   9.6217558294850011E-005           3     2601779           0
</event>
<event>
      6   9999 -3.45752E-01  2.91493E+01 -1.00000E+00  1.48651E-01
      21    -1     0     0   511   502  0.000000000E+00  0.000000000E+00  4.460462837E+01  4.460462837E+01  0.000000000E+00  0.00000E+00  9.000E+00
      21    -1     0     0   502   503  0.000000000E+00  0.000000000E+00 -1.207477168E+03  1.207477168E+03  0.000000000E+00  0.00000E+00  9.000E+00
      25     1     1     2     0     0 -4.424323832E+01 -1.302953636E+02 -9.853450166E+02  1.002728242E+03  1.249991160E+02  0.00000E+00  9.000E+00
       5     1     1     2   501     0 -1.096655244E+01  5.242271227E+01 -4.667123177E+01  7.119812082E+01  4.750000000E+00  0.00000E+00  9.000E+00
      -5     1     1     2     0   503  2.628483612E+01  8.148201831E+01 -1.190262467E+02  1.466970409E+02  4.750000000E+00  0.00000E+00  9.000E+00
      21     1     1     2   511   501  2.892495464E+01 -3.609366964E+00 -1.183004456E+01  3.145839292E+01  7.907449699E-07  0.00000E+00  9.000E+00
#rwgt            1           9  -3.6583775615432884E-003           3     2605692           0
</event>
<event>
      6   9999 -3.45752E-01  1.32681E+01 -1.00000E+00  1.75122E-01
       2    -1     0     0   502     0  0.000000000E+00  0.000000000E+00  4.042258767E+01  4.042258767E+01  0.000000000E+00  0.00000E+00  9.000E+00
      21    -1     0     0   501   502  0.000000000E+00  0.000000000E+00 -1.631121762E+03  1.631121762E+03  0.000000000E+00  0.00000E+00  9.000E+00
      25     1     1     2     0     0 -5.060675538E+00  3.265676266E+01 -1.445191209E+03  1.450963140E+03  1.249973134E+02  0.00000E+00  9.000E+00
       5     1     1     2   501     0 -1.257899168E+01 -1.199914129E+01 -5.696288795E+01  5.974565698E+01  4.750000000E+00  0.00000E+00  9.000E+00
      -5     1     1     2     0   503  5.985586061E+00 -1.431521376E+01 -1.229212461E+02  1.239876922E+02  4.750000000E+00  0.00000E+00  9.000E+00
       2     1     1     2   503     0  1.165408116E+01 -6.342407612E+00  3.437616946E+01  3.684785976E+01  2.523185073E-06  0.00000E+00  9.000E+00
#rwgt            1           9 -0.87586689423093012                3     2607405           0
</event>
<event>
      6   9999  3.45752E-01  5.78011E+00 -1.00000E+00  2.16342E-01
      21    -1     0     0   501   502  0.000000000E+00  0.000000000E+00  9.809178540E+00  9.809178540E+00  0.000000000E+00  0.00000E+00  9.000E+00
      21    -1     0     0   502   511  0.000000000E+00  0.000000000E+00 -1.560252878E+03  1.560252878E+03  0.000000000E+00  0.00000E+00  9.000E+00
      25     1     1     2     0     0  2.498907399E+01 -1.217184449E+01 -6.709340301E+02  6.830444319E+02  1.249984624E+02  0.00000E+00  9.000E+00
       5     1     1     2   501     0 -6.965669397E-01 -2.847067737E-01  1.821271023E-02  4.809271790E+00  4.750000000E+00  0.00000E+00  9.000E+00
      -5     1     1     2     0   503 -2.168358025E+01  7.298728859E+00 -1.013426734E+02  1.040016781E+02  4.750000000E+00  0.00000E+00  9.000E+00
      21     1     1     2   503   511 -2.608926798E+00  5.157822408E+00 -7.781852087E+02  7.782066748E+02  1.078959322E-05  0.00000E+00  9.000E+00
#rwgt            1           9   4.7437941302972824E-005           3     2609741           0
</event>
<event>
      6   9999 -3.45752E-01  2.25085E+01 -1.00000E+00  1.56390E-01
      21    -1     0     0   501   502  0.000000000E+00  0.000000000E+00  8.557784757E+00  8.557784757E+00  0.000000000E+00  0.00000E+00  9.000E+00
      21    -1     0     0   512   503  0.000000000E+00  0.000000000E+00 -3.094538465E+03  3.094538465E+03  0.000000000E+00  0.00000E+00  9.000E+00
      25     1     1     2     0     0 -2.200246717E+01 -1.143770462E+01 -7.837926973E+02  7.940844822E+02  1.249969710E+02  0.00000E+00  9.000E+00
       5     1     1     2   501     0 -2.400613193E+00 -1.995387599E+00 -6.913872904E-01  5.725821492E+00  4.750000000E+00  0.00000E+00  9.000E+00
      -5     1     1     2     0   503  4.279252937E+00  3.350226374E+00 -1.467933240E+01  1.635791314E+01  4.750000000E+00  0.00000E+00  9.000E+00
      21     1     1     2   512   502  2.012382742E+01  1.008286584E+01 -2.286817263E+03  2.286928033E+03  6.103515625E-05  0.00000E+00  9.000E+00
#rwgt            1           9  -2.0333746527385221E-004           3     2613154           0
</event>
<event>
      6   9999  3.45752E-01  1.78056E+01 -1.00000E+00  1.64161E-01
      21    -1     0     0   501   511  0.000000000E+00  0.000000000E+00  4.345886121E+02  4.345886121E+02  0.000000000E+00  0.00000E+00  9.000E+00
      21    -1     0     0   502   503  0.000000000E+00  0.000000000E+00 -1.499143730E+01  1.499143730E+01  0.000000000E+00  0.00000E+00  9.000E+00
      25     1     1     2     0     0  2.076183141E+01 -6.326400292E+00  3.140851218E+02  3.387409779E+02  1.249996377E+02  0.00000E+00  9.000E+00
       5     1     1     2   501     0  1.134399090E+00  2.361183690E-01  3.621826744E+01  3.654679206E+01  4.750000000E+00  0.00000E+00  9.000E+00
      -5     1     1     2     0   503 -4.093100934E+00  5.791696473E+00  1.650701743E+01  1.858336212E+01  4.750000000E+00  0.00000E+00  9.000E+00
      21     1     1     2   502   511 -1.780312957E+01  2.985854501E-01  5.278676812E+01  5.570891727E+01  0.000000000E+00  0.00000E+00  9.000E+00
#rwgt            1           9   1.5996946885810052E-004           3     2614285           0
</event>
<event>
      6   9999  3.45752E-01  2.27526E+01 -1.00000E+00  1.56050E-01
      21    -1     0     0   501   512  0.000000000E+00  0.000000000E+00  3.171934045E+03  3.171934045E+03  0.000000000E+00  0.00000E+00  9.000E+00
      21    -1     0     0   502   503  0.000000000E+00  0.000000000E+00 -8.008813378E+02  8.008813378E+02  0.000000000E+00  0.00000E+00  9.000E+00
      25     1     1     2     0     0  8.165950733E+00 -2.242915980E+01 -4.265774713E+02  4.451544917E+02  1.249977296E+02  0.00000E+00  9.000E+00
       5     1     1     2   501     0  4.359193322E+00 -1.371387758E-01 -5.850567702E+01  5.885998740E+01  4.750000000E+00  0.00000E+00  9.000E+00
      -5     1     1     2     0   503  2.874390311E+00  5.817057413E+00 -3.062388207E+02  3.063443782E+02  4.750000000E+00  0.00000E+00  9.000E+00
      21     1     1     2   502   512 -1.539953437E+01  1.674924116E+01  3.162374676E+03  3.162456526E+03  0.000000000E+00  0.00000E+00  9.000E+00
#rwgt            1           9   1.9387062436813449E-004           3     2615644           0
</event>
<event>
      6   9999  3.45752E-01  4.55711E+00 -1.00000E+00  2.36684E-01
      21    -1     0     0   501   502  0.000000000E+00  0.000000000E+00  2.521291695E+02  2.521291695E+02  0.000000000E+00  0.00000E+00  9.000E+00
      21    -1     0     0   502   511  0.000000000E+00  0.000000000E+00 -1.337650798E+03  1.337650798E+03  0.000000000E+00  0.00000E+00  9.000E+00
      25     1     1     2     0     0  7.540300748E+00 -4.190383293E+00  1.373076082E+02  1.858849738E+02  1.250017151E+02  0.00000E+00  9.000E+00
       5     1     1     2   501     0  1.855084839E+00 -4.048603622E-01  8.749247642E+01  8.764189170E+01  4.750000000E+00  0.00000E+00  9.000E+00
      -5     1     1     2     0   503 -7.547407101E+00  4.296414307E-01 -3.766668901E+00  9.690110439E+00  4.750000000E+00  0.00000E+00  9.000E+00
      21     1     1     2   503   511 -1.847978485E+00  4.165602224E+00 -1.306555045E+03  1.306562992E+03  2.642899792E-05  0.00000E+00  9.000E+00
#rwgt            1           9   8.3513775206309031                3     2616995           0
</event>
<event>
      6   9999  3.45752E-01  2.49590E+01 -1.00000E+00  1.53199E-01
      21    -1     0     0   512   502  0.000000000E+00  0.000000000E+00  4.127539481E+01  4.127539481E+01  0.000000000E+00  0.00000E+00  9.000E+00
      21    -1     0     0   502   503  0.000000000E+00  0.000000000E+00 -1.360303210E+03  1.360303210E+03  0.000000000E+00  0.00000E+00  9.000E+00
      25     1     1     2     0     0 -6.965127202E+01 -4.216831200E+00 -4.263998795E+02  4.499477941E+02  1.255670292E+02  0.00000E+00  9.000E+00
       5     1     1     2   501     0  3.390267984E+00  8.748462310E+00  2.020590285E+01  2.277872954E+01  4.750000000E+00  0.00000E+00  9.000E+00
      -5     1     1     2     0   503  8.924125564E+01  5.207960990E+00 -8.916001443E+02  8.960828670E+02  4.750000000E+00  0.00000E+00  9.000E+00
      21     1     1     2   512   501 -2.298025161E+01 -9.739592100E+00 -2.123369368E+01  3.276921368E+01  5.331201500E-07  0.00000E+00  9.000E+00
#rwgt            1           9   1.6065413845008900E-002           3     2621231           0
</event>
<event>
      6   9999  3.45752E-01  4.08519E+01 -1.00000E+00  1.39657E-01
      21    -1     0     0   501   511  0.000000000E+00  0.000000000E+00  4.380758703E+01  4.380758703E+01  0.000000000E+00  0.00000E+00  9.000E+00
      21    -1     0     0   502   503  0.000000000E+00  0.000000000E+00 -8.503773232E+02  8.503773232E+02  0.000000000E+00  0.00000E+00  9.000E+00
      25     1     1     2     0     0  7.665229137E+00  2.245439016E+01 -6.829470592E+02  6.946973538E+02  1.249990889E+02  0.00000E+00  9.000E+00
       5     1     1     2   501     0  1.526827467E+01 -4.157072467E+01 -7.888157992E+01  9.058759027E+01  4.750000000E+00  0.00000E+00  9.000E+00
      -5     1     1     2     0   503 -5.776425676E+00 -1.795808016E+01 -6.168043269E+01  6.467532771E+01  4.750000000E+00  0.00000E+00  9.000E+00
      21     1     1     2   502   511 -1.715707813E+01  3.707441467E+01  1.693933570E+01  4.422463846E+01  1.800020799E-06  0.00000E+00  9.000E+00
#rwgt            1           9   1.3210243065826040E-003           3     2623008           0
</event>
<event>
      6   9999  3.45752E-01  2.52773E+01 -1.00000E+00  1.52817E-01
      21    -1     0     0   501   502  0.000000000E+00  0.000000000E+00  2.781088988E+01  2.781088988E+01  0.000000000E+00  0.00000E+00  9.000E+00
      21    -1     0     0   512   503  0.000000000E+00  0.000000000E+00 -1.641380359E+03  1.641380359E+03  0.000000000E+00  0.00000E+00  9.000E+00
      25     1     1     2     0     0 -6.313849100E+01 -2.573594326E+01 -7.363421023E+02  7.499819561E+02  1.249977400E+02  0.00000E+00  9.000E+00
       5     1     1     2   501     0 -7.956065043E+00  3.253262446E+00  1.535950906E+01  1.823073521E+01  4.750000000E+00  0.00000E+00  9.000E+00
      -5     1     1     2     0   503  5.886972154E+01  4.460722996E+01 -3.469596898E+02  3.547661736E+02  4.750000000E+00  0.00000E+00  9.000E+00
      21     1     1     2   512   502  1.222483450E+01 -2.212454914E+01 -5.456271859E+02  5.462123839E+02  1.078959322E-05  0.00000E+00  9.000E+00
#rwgt            1           9   4.3536673147376508E-005           3     2623815           0
</event>
<event>
      6   9999 -3.45752E-01  1.35911E+01 -1.00000E+00  1.74169E-01
      21    -1     0     0   511   502  0.000000000E+00  0.000000000E+00  1.283678360E+02  1.283678360E+02  0.000000000E+00  0.00000E+00  9.000E+00
       1    -1     0     0   501     0  0.000000000E+00  0.000000000E+00 -1.124363332E+03  1.124363332E+03  0.000000000E+00  0.00000E+00  9.000E+00
      25     1     1     2     0     0  2.631553815E+02 -5.346555218E+01 -1.694110707E+02  3.412297861E+02  1.250133430E+02  0.00000E+00  9.000E+00
       5     1     1     2   501     0 -3.868473624E+01  2.127388920E+01 -1.251491254E+02  1.327928962E+02  4.750000000E+00  0.00000E+00  9.000E+00
      -5     1     1     2     0   502 -2.364242211E+02  3.865922904E+01 -7.182061701E+02  7.571219278E+02  4.750000000E+00  0.00000E+00  9.000E+00
       1     1     1     2   511     0  1.195357575E+01 -6.467566067E+00  1.677087042E+01  2.158655782E+01  5.840038640E-07  0.00000E+00  9.000E+00
#rwgt            1           1  -6.5625699577440610E-004           3     2626010           0
</event>
<event>
      6   9999  3.45752E-01  3.62947E+00 -1.00000E+00  2.56925E-01
      21    -1     0     0   512   503  0.000000000E+00  0.000000000E+00  4.018328020E+01  4.018328020E+01  0.000000000E+00  0.00000E+00  9.000E+00
      21    -1     0     0   501   502  0.000000000E+00  0.000000000E+00 -7.300231463E+02  7.300231463E+02  0.000000000E+00  0.00000E+00  9.000E+00
      25     1     1     2     0     0 -7.423382432E+00  9.321738529E-02 -7.024219664E+02  7.134959692E+02  1.249990558E+02  0.00000E+00  9.000E+00
       5     1     1     2   501     0  7.616661197E+00  2.360734983E+00 -1.389919942E+01  1.671337315E+01  4.750000000E+00  0.00000E+00  9.000E+00
      -5     1     1     2     0   503 -1.392745444E+00  9.715917960E-01 -5.700101112E+00  7.611661000E+00  4.750000000E+00  0.00000E+00  9.000E+00
      21     1     1     2   512   502  1.199466679E+00 -3.425544164E+00  3.218140081E+01  3.238542313E+01  1.168007728E-06  0.00000E+00  9.000E+00
#rwgt            1           9   6.6038551320759101E-002           3     2626885           0
</event>
<event>
      6   9999  3.45752E-01  1.98148E+01 -1.00000E+00  1.60519E-01
      21    -1     0     0   501   502  0.000000000E+00  0.000000000E+00  2.415028879E+01  2.415028879E+01  0.000000000E+00  0.00000E+00  9.000E+00
      21    -1     0     0   502   511  0.000000000E+00  0.000000000E+00 -1.228035409E+03  1.228035409E+03  0.000000000E+00  0.00000E+00  9.000E+00
      25     1     1     2     0     0  7.725609685E-01 -6.707234051E+01 -6.537686548E+02  6.689847722E+02  1.250115023E+02  0.00000E+00  9.000E+00
       5     1     1     2   501     0 -3.472848835E-01 -4.757154729E+00  1.278009818E+01  1.444453313E+01  4.750000000E+00  0.00000E+00  9.000E+00
      -5     1     1     2     0   503  1.432944827E+01  5.860365446E+01 -3.798514649E+02  3.846419365E+02  4.750000000E+00  0.00000E+00  9.000E+00
      21     1     1     2   503   511 -1.475472436E+01  1.322584078E+01 -1.830450986E+02  1.841144560E+02  0.000000000E+00  0.00000E+00  9.000E+00
#rwgt            1           9   4.9994038755652343E-005           3     2632127           0
</event>
<event>
      6   9999  3.45752E-01  1.45321E+01 -1.00000E+00  1.71573E-01
      21    -1     0     0   501   502  0.000000000E+00  0.000000000E+00  3.046060377E+02  3.046060377E+02  0.000000000E+00  0.00000E+00  9.000E+00
      21    -1     0     0   502   512  0.000000000E+00  0.000000000E+00 -1.177880117E+02  1.177880117E+02  0.000000000E+00  0.00000E+00  9.000E+00
      25     1     1     2     0     0  1.899583568E+01 -2.586190012E+01  2.622977836E+02  2.923265035E+02  1.249999109E+02  0.00000E+00  9.000E+00
       5     1     1     2   501     0  6.059894205E+00  1.635630303E+01  6.584203422E+00  1.923967779E+01  4.750000000E+00  0.00000E+00  9.000E+00
      -5     1     1     2     0   503 -1.108466441E+01  1.350434714E+01  7.859634940E+00  1.973761733E+01  4.750000000E+00  0.00000E+00  9.000E+00
      21     1     1     2   503   512 -1.397106548E+01 -3.998750048E+00 -8.992359593E+01  9.109025073E+01  2.336015456E-06  0.00000E+00  9.000E+00
#rwgt            1           9   4.2514509287624319E-003           3     2635189           0
</event>
<event>
      6   9999 -3.45752E-01  8.82469E+00 -1.00000E+00  1.93101E-01
      21    -1     0     0   501   502  0.000000000E+00  0.000000000E+00  3.347375559E+01  3.347375559E+01  0.000000000E+00  0.00000E+00  9.000E+00
      21    -1     0     0   502   511  0.000000000E+00  0.000000000E+00 -1.205095835E+03  1.205095835E+03  0.000000000E+00  0.00000E+00  9.000E+00
      25     1     1     2     0     0 -1.619532780E+02  5.366098405E+01 -6.181984855E+02  6.533770652E+02  1.249954255E+02  0.00000E+00  9.000E+00
       5     1     1     2   501     0  1.294043720E+01 -8.936402755E+00 -4.041482719E+01  4.362608126E+01  4.750000000E+00  0.00000E+00  9.000E+00
      -5     1     1     2     0   503  1.577730216E+02 -4.365948760E+01 -4.715762358E+02  4.992045532E+02  4.750000000E+00  0.00000E+00  9.000E+00
      21     1     1     2   503   511 -8.760180781E+00 -1.065093701E+00 -4.143253102E+01  4.236189111E+01  0.000000000E+00  0.00000E+00  9.000E+00
#rwgt            1           9  -5.0353903767040280E-003           3     2638042           0
</event>
<event>
      6   9999  3.45752E-01  2.23356E+01 -1.00000E+00  1.56633E-01
      21    -1     0     0   512   502  0.000000000E+00  0.000000000E+00  8.939133638E+01  8.939133638E+01  0.000000000E+00  0.00000E+00  9.000E+00
      21    -1     0     0   502   503  0.000000000E+00  0.000000000E+00 -6.517240343E+02  6.517240343E+02  0.000000000E+00  0.00000E+00  9.000E+00
      25     1     1     2     0     0 -1.806237573E+01 -4.311566206E-01 -5.926844796E+02  6.059925940E+02  1.250027851E+02  0.00000E+00  9.000E+00
       5     1     1     2   501     0 -1.068045555E+00  2.142909120E-01 -8.857942349E+00  1.011000913E+01  4.750000000E+00  0.00000E+00  9.000E+00
      -5     1     1     2     0   503 -3.194201717E+00 -4.844957629E-01 -4.117952962E+01  4.157828544E+01  4.750000000E+00  0.00000E+00  9.000E+00
      21     1     1     2   512   501  2.232462300E+01  7.013614715E-01  8.038925368E+01  8.343448212E+01  2.523185073E-06  0.00000E+00  9.000E+00
#rwgt            1           9   1.2104388477615256E-004           3     2642529           0
</event>
<event>
      6   9999  3.45752E-01  4.87158E+00 -1.00000E+00  2.31368E-01
      21    -1     0     0   501   502  0.000000000E+00  0.000000000E+00  9.872326843E+01  9.872326843E+01  0.000000000E+00  0.00000E+00  9.000E+00
       1    -1     0     0   502     0  0.000000000E+00  0.000000000E+00 -2.413428245E+03  2.413428245E+03  0.000000000E+00  0.00000E+00  9.000E+00
      25     1     1     2     0     0  6.641546777E+01 -3.152007603E+00  1.721523673E+01  1.425856197E+02  1.249533716E+02  0.00000E+00  9.000E+00
       5     1     1     2   501     0 -2.493858026E+00  2.215945478E+00  1.775934535E+01  1.868385907E+01  4.750000000E+00  0.00000E+00  9.000E+00
      -5     1     1     2     0   503 -5.932981821E+01 -6.911393217E-01 -1.489746195E+03  1.490934872E+03  4.750000000E+00  0.00000E+00  9.000E+00
       1     1     1     2   503     0 -4.591791532E+00  1.627201446E+00 -8.599333636E+02  8.599471624E+02  1.525878906E-05  0.00000E+00  9.000E+00
#rwgt            1           9   1.3645068868453616E-003           3     2643503           0
</event>
<event>
      6   9999  3.45752E-01  2.48753E+01 -1.00000E+00  1.53300E-01
      21    -1     0     0   501   502  0.000000000E+00  0.000000000E+00  1.678169050E+01  1.678169050E+01  0.000000000E+00  0.00000E+00  9.000E+00
       2    -1     0     0   502     0  0.000000000E+00  0.000000000E+00 -2.210362793E+03  2.210362793E+03  0.000000000E+00  0.00000E+00  9.000E+00
      25     1     1     2     0     0  2.189151337E+00  2.691708109E+01 -1.428221392E+03  1.433935242E+03  1.249984411E+02  0.00000E+00  9.000E+00
       5     1     1     2   501     0  2.038210607E+00 -7.292944230E+00  7.735386697E+00  1.182116937E+01  4.750000000E+00  0.00000E+00  9.000E+00
      -5     1     1     2     0   503  1.296808728E+01 -3.759901647E+01 -9.847705306E+01  1.063115695E+02  4.750000000E+00  0.00000E+00  9.000E+00
       2     1     1     2   503     0 -1.719544922E+01  1.797487961E+01 -6.746180438E+02  6.750765029E+02  1.525878906E-05  0.00000E+00  9.000E+00
#rwgt            1           9   1.0774374182462776E-004           3     2651025           0
</event>
<event>
      6   9999  3.45752E-01  6.17471E+00 -1.00000E+00  2.12336E-01
      21    -1     0     0   501   511  0.000000000E+00  0.000000000E+00  4.848167053E+02  4.848167053E+02  0.000000000E+00  0.00000E+00  9.000E+00
      21    -1     0     0   502   503  0.000000000E+00  0.000000000E+00 -7.972481066E+02  7.972481066E+02  0.000000000E+00  0.00000E+00  9.000E+00
      25     1     1     2     0     0  1.065579459E+01 -3.327839344E-01 -7.053474910E+02  7.164173168E+02  1.250001284E+02  0.00000E+00  9.000E+00
       5     1     1     2   501     0 -6.387903032E-01 -2.926255422E+00  4.058814362E+00  6.928744321E+00  4.750000000E+00  0.00000E+00  9.000E+00
      -5     1     1     2     0   503 -6.080634620E+00 -1.498278591E+00 -8.472871033E+01  8.509251325E+01  4.750000000E+00  0.00000E+00  9.000E+00
      21     1     1     2   502   511 -3.936369670E+00  4.757317947E+00  4.735859856E+02  4.736262375E+02  0.000000000E+00  0.00000E+00  9.000E+00
#rwgt            1           9   9.7769265286729197E-003           3     2652739           0
</event>
<event>
      6   9999  3.45752E-01  4.52641E+00 -1.00000E+00  2.37237E-01
      21    -1     0     0   501   502  0.000000000E+00  0.000000000E+00  2.021094038E+03  2.021094038E+03  0.000000000E+00  0.00000E+00  9.000E+00
      21    -1     0     0   512   503  0.000000000E+00  0.000000000E+00 -7.506285766E+00  7.506285766E+00  0.000000000E+00  0.00000E+00  9.000E+00
      25     1     1     2     0     0  6.052338229E+00  3.697320463E+01  8.097811841E+02  8.202281325E+02  1.249998982E+02  0.00000E+00  9.000E+00
       5     1     1     2   501     0 -2.764231200E+00  6.821780729E-01  8.927245949E+02  8.927417718E+02  4.750000000E+00  0.00000E+00  9.000E+00
      -5     1     1     2     0   503 -4.346362881E+00 -3.325441666E+01  3.086288369E+02  3.104819939E+02  4.750000000E+00  0.00000E+00  9.000E+00
      21     1     1     2   512   502  1.058255852E+00 -4.400966040E+00  2.453136395E+00  5.148425557E+00  4.924151791E-07  0.00000E+00  9.000E+00
#rwgt            1           9   8.2976996001087359E-004           3     2656427           0
</event>
<event>
      6   9999  3.45752E-01  5.12519E+00 -1.00000E+00  2.24058E-01
      21    -1     0     0   501   511  0.000000000E+00  0.000000000E+00  1.154916157E+01  1.154916157E+01  0.000000000E+00  0.00000E+00  9.000E+00
      21    -1     0     0   502   503  0.000000000E+00  0.000000000E+00 -7.233186813E+02  7.233186813E+02  0.000000000E+00  0.00000E+00  9.000E+00
      25     1     1     2     0     0  1.905402316E+00  3.018345136E+00 -6.666418171E+02  6.782711784E+02  1.250109522E+02  0.00000E+00  9.000E+00
       5     1     1     2   501     0  6.819776903E-01  1.863288836E+00  3.198041954E+00  6.060273195E+00  4.750000000E+00  0.00000E+00  9.000E+00
      -5     1     1     2     0   503  7.562212123E-01 -9.973136526E-01 -4.247582040E+01  4.275890929E+01  4.750000000E+00  0.00000E+00  9.000E+00
      21     1     1     2   502   511 -3.343601219E+00 -3.884320319E+00 -5.849924261E+00  7.777482067E+00  8.429369702E-08  0.00000E+00  9.000E+00
#rwgt            1           9   8.2258753315411944E-003           3     2661694           0
</event>
<event>
      6   9999  3.45752E-01  3.16779E+01 -1.00000E+00  1.46325E-01
      21    -1     0     0   501   502  0.000000000E+00  0.000000000E+00  1.164031934E+03  1.164031934E+03  0.000000000E+00  0.00000E+00  9.000E+00
      21    -1     0     0   502   512  0.000000000E+00  0.000000000E+00 -1.272455167E+02  1.272455167E+02  0.000000000E+00  0.00000E+00  9.000E+00
      25     1     1     2     0     0 -1.322783998E+00 -1.649219089E+01  7.336875790E+02  7.444359986E+02  1.249549935E+02  0.00000E+00  9.000E+00
       5     1     1     2   501     0 -4.395314543E+00  8.133867395E-01  3.784099140E+02  3.784661226E+02  4.750000000E+00  0.00000E+00  9.000E+00
      -5     1     1     2     0   503 -2.555209267E+01  1.061296960E+01  3.995731524E+01  4.883332986E+01  4.750000000E+00  0.00000E+00  9.000E+00
      21     1     1     2   503   512  3.127019121E+01  5.065834557E+00 -1.152683913E+02  1.195419992E+02  5.394796609E-06  0.00000E+00  9.000E+00
#rwgt            1           9   3.3965575948055587E-003           3     2665776           0
</event>
<event>
      6   9999  3.45752E-01  4.38587E+00 -1.00000E+00  2.39852E-01
      21    -1     0     0   501   502  0.000000000E+00  0.000000000E+00  1.026983413E+02  1.026983413E+02  0.000000000E+00  0.00000E+00  9.000E+00
      21    -1     0     0   511   503  0.000000000E+00  0.000000000E+00 -1.650746814E+03  1.650746814E+03  0.000000000E+00  0.00000E+00  9.000E+00
      25     1     1     2     0     0  2.111463448E+01  2.102642801E+01 -1.524409425E+03  1.529815542E+03  1.249942345E+02  0.00000E+00  9.000E+00
       5     1     1     2   501     0 -1.649814072E+01 -1.307317738E+01  9.814849748E+01  1.004927195E+02  4.750000000E+00  0.00000E+00  9.000E+00
      -5     1     1     2     0   503 -1.209552140E+00 -1.071525048E+01 -1.086393244E+02  1.092764610E+02  4.750000000E+00  0.00000E+00  9.000E+00
      21     1     1     2   511   502 -3.406941620E+00  2.761999848E+00 -1.314822020E+01  1.386043249E+01  1.685873940E-07  0.00000E+00  9.000E+00
#rwgt            1           9   8.1639392135345219E-003           3     2667100           0
</event>
<event>
      6   9999  3.45752E-01  6.12578E+00 -1.00000E+00  2.12810E-01
      -3    -1     0     0     0   502  0.000000000E+00  0.000000000E+00  2.878122667E+02  2.878122667E+02  0.000000000E+00  0.00000E+00  9.000E+00
      21    -1     0     0   502   503  0.000000000E+00  0.000000000E+00 -7.379629990E+02  7.379629990E+02  0.000000000E+00  0.00000E+00  9.000E+00
      25     1     1     2     0     0 -5.348934703E+00 -9.138232509E+00 -6.788198957E+02  6.903143579E+02  1.250013745E+02  0.00000E+00  9.000E+00
       5     1     1     2   501     0  7.909184802E+00  1.339685989E+00 -1.186175047E+01  1.508686803E+01  4.750000000E+00  0.00000E+00  9.000E+00
      -5     1     1     2     0   503  3.330204122E+00  9.480143148E+00 -3.911381567E+01  4.066222387E+01  4.750000000E+00  0.00000E+00  9.000E+00
      -3     1     1     2     0   501 -5.890454220E+00 -1.681596627E+00  2.796447295E+02  2.797118159E+02  0.000000000E+00  0.00000E+00  9.000E+00
#rwgt            1           9   6.3836686029496907E-004           3     2675630           0
</event>
<event>
      6   9999 -3.45752E-01  2.78193E+00 -1.00000E+00  2.85774E-01
      21    -1     0     0   501   502  0.000000000E+00  0.000000000E+00  1.360342437E+01  1.360342437E+01  0.000000000E+00  0.00000E+00  9.000E+00
      21    -1     0     0   502   511  0.000000000E+00  0.000000000E+00 -7.151449607E+02  7.151449607E+02  0.000000000E+00  0.00000E+00  9.000E+00
      25     1     1     2     0     0  2.790244375E+00  4.037519082E+00 -6.655886553E+02  6.772401535E+02  1.249875207E+02  0.00000E+00  9.000E+00
       5     1     1     2   501     0 -1.218088482E+00 -1.638290495E+00  6.523339323E+00  8.323712586E+00  4.750000000E+00  0.00000E+00  9.000E+00
      -5     1     1     2     0   503  9.614757786E-01 -1.250376596E+00 -2.780544284E+01  2.825231015E+01  4.750000000E+00  0.00000E+00  9.000E+00
      21     1     1     2   503   511 -2.533631672E+00 -1.148851991E+00 -1.467077749E+01  1.493220889E+01  1.685873940E-07  0.00000E+00  9.000E+00
#rwgt            1           9  -8.1728746283347281E-004           3     2678970           0
</event>
<event>
      6   9999  3.45752E-01  4.74276E+00 -1.00000E+00  2.33472E-01
      21    -1     0     0   501   502  0.000000000E+00  0.000000000E+00  1.108459588E+03  1.108459588E+03  0.000000000E+00  0.00000E+00  9.000E+00
      21    -1     0     0   512   503  0.000000000E+00  0.000000000E+00 -5.656095142E+00  5.656095142E+00  0.000000000E+00  0.00000E+00  9.000E+00
      25     1     1     2     0     0  6.978430311E+00  9.051141676E-01  8.078132339E+02  8.174446944E+02  1.249163314E+02  0.00000E+00  9.000E+00
       5     1     1     2   501     0  1.963973339E-01  9.815214608E-01  2.539274277E+02  2.539738234E+02  4.750000000E+00  0.00000E+00  9.000E+00
      -5     1     1     2     0   503 -2.639580497E+00 -4.990648859E-01  3.206355902E+01  3.252461787E+01  4.750000000E+00  0.00000E+00  9.000E+00
      21     1     1     2   512   502 -4.535247148E+00 -1.387570743E+00  8.999272028E+00  1.017254719E+01  4.616955931E-07  0.00000E+00  9.000E+00
#rwgt            1           9   7.1758306383088171E-004           3     2684738           0
</event>
<event>
      6   9999  3.45752E-01  5.54441E+02 -1.00000E+00  9.54924E-02
       2    -1     0     0   501     0  0.000000000E+00  0.000000000E+00  1.344334575E+03  1.344334575E+03  0.000000000E+00  0.00000E+00  9.000E+00
      21    -1     0     0   511   502  0.000000000E+00  0.000000000E+00 -2.005902165E+03  2.005902165E+03  0.000000000E+00  0.00000E+00  9.000E+00
      25     1     1     2     0     0 -1.636187872E+02 -8.102214839E+01 -5.373536173E+02  5.811252032E+02  1.249875820E+02  0.00000E+00  9.000E+00
       5     1     1     2   501     0 -3.215044698E+01  3.282128255E+01 -1.657095616E+02  1.720264780E+02  4.750000000E+00  0.00000E+00  9.000E+00
      -5     1     1     2     0   502 -2.778670640E+02  3.364251920E+02 -1.178673098E+03  1.256855143E+03  4.750000000E+00  0.00000E+00  9.000E+00
       2     1     1     2   511     0  4.736362982E+02 -2.882243262E+02  1.220168686E+03  1.340229916E+03  1.525878906E-05  0.00000E+00  9.000E+00
#rwgt            1           4   2.8070686631530982E-003           3     2688097           0
</event>
<event>
      6   9999  3.45752E-01  1.03269E+01 -1.00000E+00  1.85734E-01
      21    -1     0     0   501   512  0.000000000E+00  0.000000000E+00  1.038119765E+01  1.038119765E+01  0.000000000E+00  0.00000E+00  9.000E+00
      21    -1     0     0   502   503  0.000000000E+00  0.000000000E+00 -8.365940867E+02  8.365940867E+02  0.000000000E+00  0.00000E+00  9.000E+00
      25     1     1     2     0     0 -2.850623025E+01  1.077300960E+01 -7.032066204E+02  7.148808561E+02  1.250056981E+02  0.00000E+00  9.000E+00
       5     1     1     2   501     0  4.351172108E-01  1.013437064E+00 -2.010230865E+00  5.274458247E+00  4.750000000E+00  0.00000E+00  9.000E+00
      -5     1     1     2     0   503  2.444387187E+01 -2.117491907E+00 -1.037587900E+02  1.067259840E+02  4.750000000E+00  0.00000E+00  9.000E+00
      21     1     1     2   502   512  3.627241168E+00 -9.668954757E+00 -1.723724776E+01  2.009398604E+01  2.384185791E-07  0.00000E+00  9.000E+00
#rwgt            1           9   2.1614778907981573E-004           3     2688434           0
</event>
<event>
      6   9999 -3.45752E-01  1.23534E+01 -1.00000E+00  1.78017E-01
      21    -1     0     0   501   502  0.000000000E+00  0.000000000E+00  1.686654280E+01  1.686654280E+01  0.000000000E+00  0.00000E+00  9.000E+00
      21    -1     0     0   511   503  0.000000000E+00  0.000000000E+00 -9.802352957E+02  9.802352957E+02  0.000000000E+00  0.00000E+00  9.000E+00
      25     1     1     2     0     0  7.689108102E+00 -2.046591706E+01 -8.582443892E+02  8.675737373E+02  1.249911273E+02  0.00000E+00  9.000E+00
       5     1     1     2   501     0 -2.797847380E+00  1.462447299E+00  9.342266668E+00  1.094564519E+01  4.750000000E+00  0.00000E+00  9.000E+00
      -5     1     1     2     0   503 -1.424421918E+01  1.093319902E+01 -6.564201301E+01  6.821927142E+01  4.750000000E+00  0.00000E+00  9.000E+00
      21     1     1     2   511   502  9.352958453E+00  8.070270744E+00 -4.882461738E+01  5.036318461E+01  0.000000000E+00  0.00000E+00  9.000E+00
#rwgt            1           9  -3.6958308896646006E-004           3     2691778           0
</event>
<event>
      6   9999 -3.45752E-01  8.82452E+00 -1.00000E+00  1.93102E-01
      21    -1     0     0   501   512  0.000000000E+00  0.000000000E+00  8.931825621E+00  8.931825621E+00  0.000000000E+00  0.00000E+00  9.000E+00
      21    -1     0     0   502   503  0.000000000E+00  0.000000000E+00 -1.203996240E+03  1.203996240E+03  0.000000000E+00  0.00000E+00  9.000E+00
      25     1     1     2     0     0  4.156738452E+00  1.932591676E+00 -1.097765248E+03  1.104868290E+03  1.249975404E+02  0.00000E+00  9.000E+00
       5     1     1     2   501     0  2.636572453E+00  3.337974818E+00  2.385401461E+00  6.807806572E+00  4.750000000E+00  0.00000E+00  9.000E+00
      -5     1     1     2     0   503 -9.889922096E-01  1.376387460E+00 -7.240882559E+01  7.258424810E+01  4.750000000E+00  0.00000E+00  9.000E+00
      21     1     1     2   502   512 -5.804318696E+00 -6.646953955E+00 -2.727574299E+01  2.866772171E+01  4.768371582E-07  0.00000E+00  9.000E+00
#rwgt            1           9  -2.1100612642314001E-003           3     2693997           0
</event>
<event>
      6   9999  3.45752E-01  1.93081E+01 -1.00000E+00  1.61386E-01
      21    -1     0     0   511   502  0.000000000E+00  0.000000000E+00  2.814072658E+01  2.814072658E+01  0.000000000E+00  0.00000E+00  9.000E+00
      21    -1     0     0   502   503  0.000000000E+00  0.000000000E+00 -7.045257943E+02  7.045257943E+02  0.000000000E+00  0.00000E+00  9.000E+00
      25     1     1     2     0     0 -8.706263952E+00  3.246470222E+00 -6.373720874E+02  6.495793080E+02  1.249950437E+02  0.00000E+00  9.000E+00
       5     1     1     2   501     0  2.715329338E-01  2.219184751E+00 -2.994116192E+00  6.043653106E+00  4.750000000E+00  0.00000E+00  9.000E+00
      -5     1     1     2     0   503  6.489964074E+00  1.374423477E+01 -5.047241512E+01  5.292495453E+01  4.750000000E+00  0.00000E+00  9.000E+00
      21     1     1     2   511   501  1.944766944E+00 -1.920988974E+01  1.445355103E+01  2.411860526E+01  6.951036328E-07  0.00000E+00  9.000E+00
#rwgt            1           9   1.8738037638473643E-004           3     2696535           0
</event>
<event>
      6   9999  3.45752E-01  8.87316E+00 -1.00000E+00  1.92834E-01
      21    -1     0     0   501   512  0.000000000E+00  0.000000000E+00  2.135161580E+01  2.135161580E+01  0.000000000E+00  0.00000E+00  9.000E+00
      21    -1     0     0   502   503  0.000000000E+00  0.000000000E+00 -8.874486990E+02  8.874486990E+02  0.000000000E+00  0.00000E+00  9.000E+00
      25     1     1     2     0     0 -7.119574644E+00 -6.841538139E+00 -8.697565542E+02  8.787619602E+02  1.250944610E+02  0.00000E+00  9.000E+00
       5     1     1     2   501     0  2.178548322E-01  2.053247071E+00  1.265586211E+01  1.367467111E+01  4.750000000E+00  0.00000E+00  9.000E+00
      -5     1     1     2     0   503 -4.490622914E-01 -1.815176651E-01 -3.583689427E+00  5.969919222E+00  4.750000000E+00  0.00000E+00  9.000E+00
      21     1     1     2   502   512  7.350782103E+00  4.969808732E+00 -5.412701774E+00  1.039376433E+01  2.920019320E-07  0.00000E+00  9.000E+00
#rwgt            1           9   6.9360228033689086E-005           3     2697720           0
</event>
<event>
      6   9999  3.45752E-01  9.20091E+00 -1.00000E+00  1.91086E-01
      21    -1     0     0   501   502  0.000000000E+00  0.000000000E+00  7.820108693E+01  7.820108693E+01  0.000000000E+00  0.00000E+00  9.000E+00
      21    -1     0     0   502   511  0.000000000E+00  0.000000000E+00 -1.525350710E+03  1.525350710E+03  0.000000000E+00  0.00000E+00  9.000E+00
      25     1     1     2     0     0  5.999609184E+01 -2.252927353E+01 -8.517004671E+02  8.632068081E+02  1.250008343E+02  0.00000E+00  9.000E+00
       5     1     1     2   501     0 -3.053054545E+00  2.635340261E+00  7.001877733E+01  7.029550369E+01  4.750000000E+00  0.00000E+00  9.000E+00
      -5     1     1     2     0   503 -6.369333631E+01  2.614615158E+01 -5.899895425E+02  5.940123611E+02  4.750000000E+00  0.00000E+00  9.000E+00
      21     1     1     2   503   511  6.750299016E+00 -6.252218304E+00 -7.547839042E+01  7.603712377E+01  1.348699152E-06  0.00000E+00  9.000E+00
#rwgt            1           9   2.4055192316827182E-002           3     2700456           0
</event>
<event>
      6   9999  3.45752E-01  1.33527E+01 -1.00000E+00  1.74869E-01
      21    -1     0     0   501   502  0.000000000E+00  0.000000000E+00  7.024358078E+02  7.024358078E+02  0.000000000E+00  0.00000E+00  9.000E+00
      21    -1     0     0   512   503  0.000000000E+00  0.000000000E+00 -1.493657498E+02  1.493657498E+02  0.000000000E+00  0.00000E+00  9.000E+00
      25     1     1     2     0     0 -3.454394603E+01 -3.090210213E+00  1.202706850E+02  1.769026959E+02  1.250067700E+02  0.00000E+00  9.000E+00
       5     1     1     2   501     0  1.667656637E+00 -4.535559596E-01  5.248769761E+02  5.249013139E+02  4.750000000E+00  0.00000E+00  9.000E+00
      -5     1     1     2     0   503  2.692147366E+01  1.549516307E+01  1.992096074E+01  3.720581943E+01  4.750000000E+00  0.00000E+00  9.000E+00
      21     1     1     2   512   502  5.954815733E+00 -1.195139690E+01 -1.119985638E+02  1.127917285E+02  3.303624740E-06  0.00000E+00  9.000E+00
#rwgt            1           9   1.2264610409636458E-003           3     2705947           0
</event>
<event>
      6   9999  3.45752E-01  2.12803E+01 -1.00000E+00  1.58180E-01
      21    -1     0     0   502   503  0.000000000E+00  0.000000000E+00  2.276320453E+01  2.276320453E+01  0.000000000E+00  0.00000E+00  9.000E+00
      21    -1     0     0   511   502  0.000000000E+00  0.000000000E+00 -6.666850729E+02  6.666850729E+02  0.000000000E+00  0.00000E+00  9.000E+00
      25     1     1     2     0     0 -3.870995506E+01  6.606534709E+01 -4.483495296E+02  4.717037963E+02  1.249963198E+02  0.00000E+00  9.000E+00
       5     1     1     2   501     0 -2.279978823E-01  1.511426525E+00  1.014227473E+00  5.091910304E+00  4.750000000E+00  0.00000E+00  9.000E+00
      -5     1     1     2     0   503  3.656653253E+01 -4.642905056E+01 -1.335097299E+02  1.460827797E+02  4.750000000E+00  0.00000E+00  9.000E+00
      21     1     1     2   511   501  2.371420413E+00 -2.114772305E+01 -6.307683628E+01  6.656979120E+01  6.743495762E-07  0.00000E+00  9.000E+00
#rwgt            1           9   1.2826074415987999E-002           3     2708414           0
</event>
<event>
      6   9999  3.45752E-01  6.03618E+00 -1.00000E+00  2.13695E-01
      21    -1     0     0   501   502  0.000000000E+00  0.000000000E+00  1.833543420E+01  1.833543420E+01  0.000000000E+00  0.00000E+00  9.000E+00
      21    -1     0     0   502   512  0.000000000E+00  0.000000000E+00 -1.672464751E+03  1.672464751E+03  0.000000000E+00  0.00000E+00  9.000E+00
      25     1     1     2     0     0  4.432382941E+00 -6.520418099E+00 -1.137048496E+03  1.143925934E+03  1.250003932E+02  0.00000E+00  9.000E+00
       5     1     1     2   501     0 -1.828688745E+00  7.733276293E+00  1.338099059E+01  1.627148039E+01  4.750000000E+00  0.00000E+00  9.000E+00
      -5     1     1     2     0   503  9.356123702E-01  3.676804365E+00 -2.299572316E+02  2.300375732E+02  4.750000000E+00  0.00000E+00  9.000E+00
      21     1     1     2   503   512 -3.539306566E+00 -4.889662559E+00 -3.005045800E+02  3.005651978E+02  5.394796609E-06  0.00000E+00  9.000E+00
#rwgt            1           9   2.1253781163553502                3     2709727           0
</event>
<event>
      6   9999 -3.45752E-01  1.87052E+01 -1.00000E+00  1.62461E-01
      21    -1     0     0   501   502  0.000000000E+00  0.000000000E+00  2.005497845E+01  2.005497845E+01  0.000000000E+00  0.00000E+00  9.000E+00
      21    -1     0     0   511   503  0.000000000E+00  0.000000000E+00 -1.020445648E+03  1.020445648E+03  0.000000000E+00  0.00000E+00  9.000E+00
      25     1     1     2     0     0 -6.572119277E+00 -1.227309068E+00 -9.296720116E+02  9.380614810E+02  1.249983763E+02  0.00000E+00  9.000E+00
       5     1     1     2   501     0  9.689053026E-01 -2.717616425E+00  1.071577166E+01  1.207122524E+01  4.750000000E+00  0.00000E+00  9.000E+00
      -5     1     1     2     0   503 -2.677264979E+00 -1.282765837E+01 -1.179238167E+01  1.825758288E+01  4.750000000E+00  0.00000E+00  9.000E+00
      21     1     1     2   511   502  8.280478953E+00  1.677258386E+01 -6.964204822E+01  7.211033755E+01  9.536743164E-07  0.00000E+00  9.000E+00
#rwgt            1           9  -7.8198075311628513E-003           3     2713812           0
</event>
<event>
      6   9999  3.45752E-01  7.01611E+00 -1.00000E+00  2.05011E-01
      21    -1     0     0   502   503  0.000000000E+00  0.000000000E+00  4.791595929E+02  4.791595929E+02  0.000000000E+00  0.00000E+00  9.000E+00
      21    -1     0     0   501   512  0.000000000E+00  0.000000000E+00 -1.391262397E+01  1.391262397E+01  0.000000000E+00  0.00000E+00  9.000E+00
      25     1     1     2     0     0 -6.042589481E+00  9.384834429E+00  3.094756141E+02  3.339540615E+02  1.250022860E+02  0.00000E+00  9.000E+00
       5     1     1     2   501     0  1.785882079E-01  1.226775392E+00  7.647772727E+01  7.663512341E+01  4.750000000E+00  0.00000E+00  9.000E+00
      -5     1     1     2     0   503  6.870448629E+00 -3.668056998E+00  7.115609803E+01  7.173848684E+01  4.750000000E+00  0.00000E+00  9.000E+00
      21     1     1     2   502   512 -1.006447356E+00 -6.943552822E+00  8.137529564E+00  1.074454510E+01  2.665600750E-07  0.00000E+00  9.000E+00
#rwgt            1           9   1.0796720177189245E-003           3     2715479           0
</event>
<event>
      6   9999  3.45752E-01  3.29383E+01 -1.00000E+00  1.45260E-01
      21    -1     0     0   502   503  0.000000000E+00  0.000000000E+00  8.903110243E+00  8.903110243E+00  0.000000000E+00  0.00000E+00  9.000E+00
       2    -1     0     0   501     0  0.000000000E+00  0.000000000E+00 -2.024132538E+03  2.024132538E+03  0.000000000E+00  0.00000E+00  9.000E+00
      25     1     1     2     0     0  2.484872439E+01 -2.793174444E+01 -6.398654708E+02  6.530307807E+02  1.249949535E+02  0.00000E+00  9.000E+00
       5     1     1     2   501     0  7.639802966E+00  1.576085729E+01 -9.038822950E+01  9.219200477E+01  4.750000000E+00  0.00000E+00  9.000E+00
      -5     1     1     2     0   503  3.494510317E-01  9.602234991E+00 -2.265688916E+01  2.506436034E+01  4.750000000E+00  0.00000E+00  9.000E+00
       2     1     1     2   502     0 -3.283797839E+01  2.568652153E+00 -1.262318838E+03  1.262748502E+03  2.157918644E-05  0.00000E+00  9.000E+00
#rwgt            1           9  0.31507831526441765                3     2718142           0
</event>
<event>
      6   9999 -3.45752E-01  2.16934E+01 -1.00000E+00  1.57562E-01
      21    -1     0     0   501   502  0.000000000E+00  0.000000000E+00  1.316498915E+01  1.316498915E+01  0.000000000E+00  0.00000E+00  9.000E+00
      21    -1     0     0   502   511  0.000000000E+00  0.000000000E+00 -1.292214032E+03  1.292214032E+03  0.000000000E+00  0.00000E+00  9.000E+00
      25     1     1     2     0     0  1.526036503E+01 -8.703003309E+00 -7.653111128E+02  7.756502507E+02  1.249943642E+02  0.00000E+00  9.000E+00
       5     1     1     2   501     0 -9.870398094E-01 -3.138367010E+00  3.462949797E+00  6.736328108E+00  4.750000000E+00  0.00000E+00  9.000E+00
      -5     1     1     2     0   503 -2.977530355E+01 -3.334027624E+00 -8.506230591E+01  9.030970506E+01  4.750000000E+00  0.00000E+00  9.000E+00
      21     1     1     2   503   511  1.550197833E+01  1.517539794E+01 -4.321385739E+02  4.326827372E+02  9.344061824E-06  0.00000E+00  9.000E+00
#rwgt            1           9  -7.3224302541092617E-005           3     2719272           0
</event>
<event>
      6   9999  3.45752E-01  5.83070E+00 -1.00000E+00  2.15804E-01
      21    -1     0     0   501   502  0.000000000E+00  0.000000000E+00  3.578269329E+02  3.578269329E+02  0.000000000E+00  0.00000E+00  9.000E+00
      21    -1     0     0   512   503  0.000000000E+00  0.000000000E+00 -1.549723633E+02  1.549723633E+02  0.000000000E+00  0.00000E+00  9.000E+00
      25     1     1     2     0     0 -5.427097954E+00 -7.528801614E-01  3.163071143E+02  3.401501640E+02  1.249876928E+02  0.00000E+00  9.000E+00
       5     1     1     2   501     0  3.776299163E+00  4.896804772E+00  2.204299780E+01  2.338151801E+01  4.750000000E+00  0.00000E+00  9.000E+00
      -5     1     1     2     0   503  6.284653345E-01  1.596453707E+00  5.891787140E+00  7.760108815E+00  4.750000000E+00  0.00000E+00  9.000E+00
      21     1     1     2   512   502  1.022333456E+00 -5.740378317E+00 -1.413873296E+02  1.415075054E+02  0.000000000E+00  0.00000E+00  9.000E+00
#rwgt            1           9   1877.7751167375457                3     2720628           0
</event>
<event>
      6   9999  3.45752E-01  3.41720E+00 -1.00000E+00  2.62912E-01
      21    -1     0     0   501   502  0.000000000E+00  0.000000000E+00  2.166914051E+01  2.166914051E+01  0.000000000E+00  0.00000E+00  9.000E+00
      21    -1     0     0   511   503  0.000000000E+00  0.000000000E+00 -1.054698670E+03  1.054698670E+03  0.000000000E+00  0.00000E+00  9.000E+00
      25     1     1     2     0     0  8.080595797E+00 -1.063285747E+01 -8.726433435E+02  8.816505850E+02  1.249919810E+02  0.00000E+00  9.000E+00
       5     1     1     2   501     0  6.655518637E-01  3.657459640E+00  1.636431713E+01  1.744056609E+01  4.750000000E+00  0.00000E+00  9.000E+00
      -5     1     1     2     0   503 -5.345964228E+00  7.315986358E+00 -1.330772513E+02  1.334699228E+02  4.750000000E+00  0.00000E+00  9.000E+00
      21     1     1     2   511   502 -3.400183433E+00 -3.405885305E-01 -4.367325152E+01  4.380673631E+01  6.743495762E-07  0.00000E+00  9.000E+00
#rwgt            1           9   1.3360867394345130E-003           3     2723787           0
</event>
<event>
      6   9999  3.45752E-01  1.18390E+01 -1.00000E+00  1.79788E-01
       2    -1     0     0   501     0  0.000000000E+00  0.000000000E+00  1.305676326E+03  1.305676326E+03  0.000000000E+00  0.00000E+00  9.000E+00
      21    -1     0     0   502   503  0.000000000E+00  0.000000000E+00 -1.638786740E+03  1.638786740E+03  0.000000000E+00  0.00000E+00  9.000E+00
      25     1     1     2     0     0 -1.071507173E+01 -1.427456209E+01 -1.512703511E+03  1.517964691E+03  1.250052590E+02  0.00000E+00  9.000E+00
       5     1     1     2   501     0  1.718234676E+01 -1.193263598E+00  5.478494890E+01  5.762473466E+01  4.750000000E+00  0.00000E+00  9.000E+00
      -5     1     1     2     0   503 -1.789133234E+00  4.592306575E+00 -1.219086345E+02  1.221006467E+02  4.750000000E+00  0.00000E+00  9.000E+00
       2     1     1     2   502     0 -4.678141797E+00  1.087551911E+01  1.246716783E+03  1.246772994E+03  1.525878906E-05  0.00000E+00  9.000E+00
#rwgt            1           9  0.10443399983520256                3     2730173           0
</event>
<event>
      6   9999  3.45752E-01  1.27400E+01 -1.00000E+00  1.76756E-01
      21    -1     0     0   501   502  0.000000000E+00  0.000000000E+00  1.053148465E+01  1.053148465E+01  0.000000000E+00  0.00000E+00  9.000E+00
      21    -1     0     0   511   503  0.000000000E+00  0.000000000E+00 -8.768088698E+02  8.768088698E+02  0.000000000E+00  0.00000E+00  9.000E+00
      25     1     1     2     0     0 -5.865191495E+00  1.035341031E+01 -5.857788212E+02  5.990852019E+02  1.249986326E+02  0.00000E+00  9.000E+00
       5     1     1     2   501     0  1.090573586E+00  4.645739452E-01  1.289698497E+00  5.062706975E+00  4.750000000E+00  0.00000E+00  9.000E+00
      -5     1     1     2     0   503  1.403511024E+01 -2.068594866E+00 -1.262659364E+02  1.271491746E+02  4.750000000E+00  0.00000E+00  9.000E+00
      21     1     1     2   511   502 -9.260492331E+00 -8.749389392E+00 -1.555223261E+02  1.560432710E+02  1.907348633E-06  0.00000E+00  9.000E+00
#rwgt            1           9   3.1744772512968256E-002           3     2734598           0
</event>
<event>
      6   9999 -3.45752E-01  7.75677E+00 -1.00000E+00  1.99616E-01
      21    -1     0     0   501   502  0.000000000E+00  0.000000000E+00  1.051441577E+01  1.051441577E+01  0.000000000E+00  0.00000E+00  9.000E+00
       2    -1     0     0   502     0  0.000000000E+00  0.000000000E+00 -2.215890725E+03  2.215890725E+03  0.000000000E+00  0.00000E+00  9.000E+00
      25     1     1     2     0     0 -2.434100349E+01 -2.381333876E+01 -5.356547168E+02  5.511012873E+02  1.250083744E+02  0.00000E+00  9.000E+00
       5     1     1     2   501     0  1.173807964E+01  3.969964838E+00 -1.738530712E+01  2.187131770E+01  4.750000000E+00  0.00000E+00  9.000E+00
      -5     1     1     2     0   503  1.273753783E+01  1.208777689E+01 -1.532097759E+02  1.542859590E+02  4.750000000E+00  0.00000E+00  9.000E+00
       2     1     1     2   503     0 -1.346139781E-01  7.755597038E+00 -1.499126510E+03  1.499146577E+03  0.000000000E+00  0.00000E+00  9.000E+00
#rwgt            1           9  -11.921105722442297                3     2736532           0
</event>
<event>
      6   9999  3.45752E-01  2.69705E+01 -1.00000E+00  1.50892E-01
      21    -1     0     0   501   502  0.000000000E+00  0.000000000E+00  9.300947599E+01  9.300947599E+01  0.000000000E+00  0.00000E+00  9.000E+00
      21    -1     0     0   502   511  0.000000000E+00  0.000000000E+00 -1.823966289E+03  1.823966289E+03  0.000000000E+00  0.00000E+00  9.000E+00
      25     1     1     2     0     0  2.994738405E+02 -1.304884625E+02 -6.389119536E+02  7.283854676E+02  1.250003398E+02  0.00000E+00  9.000E+00
       5     1     1     2   501     0  1.933423060E+00  4.931298956E-01  1.864889852E+01  1.934748609E+01  4.750000000E+00  0.00000E+00  9.000E+00
      -5     1     1     2     0   503 -2.946599466E+02  1.561081586E+02 -9.630928598E+02  1.019198048E+03  4.750000000E+00  0.00000E+00  9.000E+00
      21     1     1     2   503   511 -6.747317005E+00 -2.611282602E+01 -1.476008984E+02  1.500447639E+02  1.907348633E-06  0.00000E+00  9.000E+00
#rwgt            1           9   9.7212776463490979E-003           3     2739800           0
</event>
<event>
      6   9999  3.45752E-01  1.50063E+01 -1.00000E+00  1.70355E-01
      21    -1     0     0   501   512  0.000000000E+00  0.000000000E+00  8.152809756E+01  8.152809756E+01  0.000000000E+00  0.00000E+00  9.000E+00
      21    -1     0     0   502   503  0.000000000E+00  0.000000000E+00 -2.412044996E+03  2.412044996E+03  0.000000000E+00  0.00000E+00  9.000E+00
      25     1     1     2     0     0  4.707837451E+00 -1.452117672E+01 -2.076847081E+03  2.080661513E+03  1.250020220E+02  0.00000E+00  9.000E+00
       5     1     1     2   501     0  3.841920796E+00  1.964119430E+00 -4.129326528E+00  7.630986706E+00  4.750000000E+00  0.00000E+00  9.000E+00
      -5     1     1     2     0   503  3.806826177E+00  2.107206307E+01 -3.263159808E+02  3.270522979E+02  4.750000000E+00  0.00000E+00  9.000E+00
      21     1     1     2   502   512 -1.235658442E+01 -8.515005773E+00  7.677548967E+01  7.822829613E+01  5.642013343E-06  0.00000E+00  9.000E+00
#rwgt            1           9   3.0718941098742862E-003           3     2742385           0
</event>
<event>
      6   9999  3.45752E-01  1.72943E+01 -1.00000E+00  1.65183E-01
      21    -1     0     0   511   502  0.000000000E+00  0.000000000E+00  3.564227087E+01  3.564227087E+01  0.000000000E+00  0.00000E+00  9.000E+00
      21    -1     0     0   502   503  0.000000000E+00  0.000000000E+00 -7.904690572E+02  7.904690572E+02  0.000000000E+00  0.00000E+00  9.000E+00
      25     1     1     2     0     0  1.896832107E+01 -9.549287247E-01 -5.182938035E+02  5.333655852E+02  1.244575096E+02  0.00000E+00  9.000E+00
       5     1     1     2   501     0 -4.057893693E-01  3.888105699E+00  3.068575621E+00  6.874640883E+00  4.750000000E+00  0.00000E+00  9.000E+00
      -5     1     1     2     0   503 -1.134935481E+01  1.278508064E+01 -2.591579611E+02  2.597646578E+02  4.750000000E+00  0.00000E+00  9.000E+00
      21     1     1     2   511   501 -7.213176884E+00 -1.571825761E+01  1.955640262E+01  2.610644416E+01  9.536743164E-07  0.00000E+00  9.000E+00
#rwgt            1           9   7.0430844686236380E-004           3     2743935           0
</event>
<event>
      6   9999  3.45752E-01  2.17974E+01 -1.00000E+00  1.57409E-01
      -2    -1     0     0     0   502  0.000000000E+00  0.000000000E+00  3.804721524E+01  3.804721524E+01  0.000000000E+00  0.00000E+00  9.000E+00
       2    -1     0     0   512     0  0.000000000E+00  0.000000000E+00 -1.354386699E+03  1.354386699E+03  0.000000000E+00  0.00000E+00  9.000E+00
      25     1     1     2     0     0 -1.567789446E+02  7.888559694E+01 -4.007674953E+02  4.550195020E+02  1.250023480E+02  0.00000E+00  9.000E+00
       5     1     1     2   501     0  3.283743137E+01 -6.376411286E+01 -3.106471769E+02  3.188548102E+02  4.750000000E+00  0.00000E+00  9.000E+00
      -5     1     1     2     0   502  1.028474309E+02 -2.061368941E+01 -5.387677872E+02  5.489041895E+02  4.750000000E+00  0.00000E+00  9.000E+00
      21     1     1     2   512   501  2.109408227E+01  5.492205333E+00 -6.615702425E+01  6.965541246E+01  9.536743164E-07  0.00000E+00  9.000E+00
#rwgt            1           3   3.5540325523899789E-005           3     2745418           0
</event>
<event>
      6   9999  3.45752E-01  3.21525E+01 -1.00000E+00  1.45917E-01
      21    -1     0     0   502   511  0.000000000E+00  0.000000000E+00  1.862583598E+01  1.862583598E+01  0.000000000E+00  0.00000E+00  9.000E+00
      21    -1     0     0   501   502  0.000000000E+00  0.000000000E+00 -8.869606725E+02  8.869606725E+02  0.000000000E+00  0.00000E+00  9.000E+00
      25     1     1     2     0     0 -1.988788098E+01  1.509876421E+01 -3.436559040E+02  3.665381580E+02  1.250093615E+02  0.00000E+00  9.000E+00
       5     1     1     2   501     0 -1.480737525E+01 -6.398803800E+00 -2.639511079E+02  2.644862056E+02  4.750000000E+00  0.00000E+00  9.000E+00
      -5     1     1     2     0   503  4.163603605E+00 -1.877972644E+01 -2.273694283E+02  2.282310959E+02  4.750000000E+00  0.00000E+00  9.000E+00
      21     1     1     2   503   511  3.053165263E+01  1.007976603E+01 -3.335839636E+01  4.633104902E+01  1.348699152E-06  0.00000E+00  9.000E+00
#rwgt            1           9   5.5102972909570553E-003           3     2749775           0
</event>
<event>
      6   9999  3.45752E-01  4.57681E+00 -1.00000E+00  2.36332E-01
      21    -1     0     0   512   502  0.000000000E+00  0.000000000E+00  8.806879620E+01  8.806879620E+01  0.000000000E+00  0.00000E+00  9.000E+00
      21    -1     0     0   502   503  0.000000000E+00  0.000000000E+00 -9.710876551E+01  9.710876551E+01  0.000000000E+00  0.00000E+00  9.000E+00
      25     1     1     2     0     0 -1.901102156E+01  2.305485645E+01 -2.698683003E+01  1.313506406E+02  1.250270228E+02  0.00000E+00  9.000E+00
       5     1     1     2   501     0  1.045498814E+01 -1.292878995E+01  9.679114652E-01  1.731934580E+01  4.750000000E+00  0.00000E+00  9.000E+00
      -5     1     1     2     0   503  5.444520538E+00 -6.769625578E+00 -6.980774985E+00  1.211463387E+01  4.750000000E+00  0.00000E+00  9.000E+00
      21     1     1     2   512   501  3.111512880E+00 -3.356440926E+00  2.395972423E+01  2.439294147E+01  3.371747881E-07  0.00000E+00  9.000E+00
#rwgt            1           9  0.41949365909314812                3     2750760           0
</event>
<event>
      6   9999  3.45752E-01  6.81179E+00 -1.00000E+00  2.06659E-01
      21    -1     0     0   501   502  0.000000000E+00  0.000000000E+00  3.835732101E+03  3.835732101E+03  0.000000000E+00  0.00000E+00  9.000E+00
      21    -1     0     0   502   511  0.000000000E+00  0.000000000E+00 -1.029860761E+01  1.029860761E+01  0.000000000E+00  0.00000E+00  9.000E+00
      25     1     1     2     0     0  2.559210978E+01 -1.306834163E+02  1.168465640E+03  1.182653143E+03  1.249935795E+02  0.00000E+00  9.000E+00
       5     1     1     2   501     0 -1.972626744E+01  1.284114051E+02  2.599121627E+03  2.602370920E+03  4.750000000E+00  0.00000E+00  9.000E+00
      -5     1     1     2     0   503 -4.688387667E+00 -4.437244348E+00  4.990371873E+01  5.054318707E+01  4.750000000E+00  0.00000E+00  9.000E+00
      21     1     1     2   503   511 -1.177454666E+00  6.709255562E+00  7.942507999E+00  1.046345751E+01  4.616955931E-07  0.00000E+00  9.000E+00
#rwgt            1           9   4.3330712530133801E-004           3     2754589           0
</event>
<event>
      6   9999  3.45752E-01  1.22267E+01 -1.00000E+00  1.78443E-01
      21    -1     0     0   512   503  0.000000000E+00  0.000000000E+00  5.866997908E+01  5.866997908E+01  0.000000000E+00  0.00000E+00  9.000E+00
      21    -1     0     0   501   502  0.000000000E+00  0.000000000E+00 -1.568913136E+03  1.568913136E+03  0.000000000E+00  0.00000E+00  9.000E+00
      25     1     1     2     0     0 -1.572195538E+01  5.054715377E+00 -7.914255981E+02  8.014064025E+02  1.250000584E+02  0.00000E+00  9.000E+00
       5     1     1     2   501     0  2.450598149E+01  8.337356016E-01 -7.284817695E+02  7.289097950E+02  4.750000000E+00  0.00000E+00  9.000E+00
      -5     1     1     2     0   503 -1.158785531E+00  3.669144579E+00 -4.288274374E+01  4.331625118E+01  4.750000000E+00  0.00000E+00  9.000E+00
      21     1     1     2   512   502 -7.625240579E+00 -9.557595558E+00  5.254695470E+01  5.395066613E+01  2.939421655E-06  0.00000E+00  9.000E+00
#rwgt            1           9   1.2037666209925709E-003           3     2758528           0
</event>
<event>
      6   9999  3.45752E-01  7.30561E+00 -1.00000E+00  2.02801E-01
      21    -1     0     0   501   511  0.000000000E+00  0.000000000E+00  2.598194613E+03  2.598194613E+03  0.000000000E+00  0.00000E+00  9.000E+00
      21    -1     0     0   502   503  0.000000000E+00  0.000000000E+00 -1.442052613E+03  1.442052613E+03  0.000000000E+00  0.00000E+00  9.000E+00
      25     1     1     2     0     0 -4.443220034E+00  7.140262211E+00 -6.699850816E+02  6.815995199E+02  1.250086811E+02  0.00000E+00  9.000E+00
       5     1     1     2   501     0  5.946190237E+00 -1.634642504E+01  5.682120566E+01  5.961354462E+01  4.750000000E+00  0.00000E+00  9.000E+00
      -5     1     1     2     0   503 -9.463942784E-01  1.921783251E+00 -7.648500033E+02  7.648677526E+02  4.750000000E+00  0.00000E+00  9.000E+00
      21     1     1     2   502   511 -5.565759243E-01  7.284379577E+00  2.534155879E+03  2.534166409E+03  4.315837288E-05  0.00000E+00  9.000E+00
#rwgt            1           9   2.0816965715453961E-003           3     2760376           0
</event>
<event>
      6   9999  3.45752E-01  3.83194E+00 -1.00000E+00  2.51772E-01
      21    -1     0     0   501   512  0.000000000E+00  0.000000000E+00  3.191418188E+01  3.191418188E+01  0.000000000E+00  0.00000E+00  9.000E+00
      21    -1     0     0   502   503  0.000000000E+00  0.000000000E+00 -8.801924653E+02  8.801924653E+02  0.000000000E+00  0.00000E+00  9.000E+00
      25     1     1     2     0     0  3.960379686E+00  3.269060985E+00 -8.439054339E+02  8.531331860E+02  1.250339168E+02  0.00000E+00  9.000E+00
       5     1     1     2   501     0 -3.447923906E+00 -2.801785353E+00  7.920414389E+00  1.024859232E+01  4.750000000E+00  0.00000E+00  9.000E+00
      -5     1     1     2     0   503 -2.454004531E+00 -3.770933739E+00 -2.995042557E+01  3.065668885E+01  4.750000000E+00  0.00000E+00  9.000E+00
      21     1     1     2   502   512  1.941548751E+00  3.303658107E+00  1.765716168E+01  1.806817996E+01  1.039242493E-06  0.00000E+00  9.000E+00
#rwgt            1           9   6.5072723628238635E-003           3     2765505           0
</event>
<event>
      6   9999  3.45752E-01  7.10977E+00 -1.00000E+00  2.04281E-01
      21    -1     0     0   501   502  0.000000000E+00  0.000000000E+00  7.012579519E+00  7.012579519E+00  0.000000000E+00  0.00000E+00  9.000E+00
       2    -1     0     0   502     0  0.000000000E+00  0.000000000E+00 -1.700778826E+03  1.700778826E+03  0.000000000E+00  0.00000E+00  9.000E+00
      25     1     1     2     0     0 -6.148922289E+00  5.778929669E+00 -7.618813173E+02  7.721159303E+02  1.250146507E+02  0.00000E+00  9.000E+00
       5     1     1     2   501     0 -6.510943813E-01 -1.968609424E+00 -2.445484648E+00  5.730815136E+00  4.750000000E+00  0.00000E+00  9.000E+00
      -5     1     1     2     0   503  7.223810382E-01 -1.209941881E-01 -2.395872302E+01  2.443602633E+01  4.750000000E+00  0.00000E+00  9.000E+00
       2     1     1     2   503     0  6.077635632E+00 -3.689326056E+00 -9.054807214E+02  9.055086337E+02  1.078959322E-05  0.00000E+00  9.000E+00
#rwgt            1           9  0.63577285929320004                3     2770793           0
</event>
<event>
      6   9999  3.45752E-01  1.32369E+01 -1.00000E+00  1.75216E-01
       1    -1     0     0   501     0  0.000000000E+00  0.000000000E+00  3.760415288E+02  3.760415288E+02  0.000000000E+00  0.00000E+00  9.000E+00
      21    -1     0     0   502   503  0.000000000E+00  0.000000000E+00 -7.052217035E+02  7.052217035E+02  0.000000000E+00  0.00000E+00  9.000E+00
      25     1     1     2     0     0  6.586420848E-01  9.070928772E+00 -5.694914839E+02  5.831195423E+02  1.250005391E+02  0.00000E+00  9.000E+00
       5     1     1     2   501     0 -1.519938286E+00  3.652490628E+00  1.284124371E+00  6.313665780E+00  4.750000000E+00  0.00000E+00  9.000E+00
      -5     1     1     2     0   503 -3.683362694E+00 -2.910917593E-01 -1.262098318E+02  1.263532193E+02  4.750000000E+00  0.00000E+00  9.000E+00
       1     1     1     2   502     0  4.544658895E+00 -1.243232764E+01  3.652370165E+02  3.654768049E+02  0.000000000E+00  0.00000E+00  9.000E+00
#rwgt            1           9   1.2253080043604083E-003           3     2773722           0
</event>
<event>
      6   9999  3.45752E-01  4.67915E+00 -1.00000E+00  2.34548E-01
      21    -1     0     0   511   502  0.000000000E+00  0.000000000E+00  2.623365126E+02  2.623365126E+02  0.000000000E+00  0.00000E+00  9.000E+00
      21    -1     0     0   502   503  0.000000000E+00  0.000000000E+00 -7.173598323E+02  7.173598323E+02  0.000000000E+00  0.00000E+00  9.000E+00
      25     1     1     2     0     0  1.833046232E+00  6.813322565E+00 -6.425343146E+02  6.546161819E+02  1.249888744E+02  0.00000E+00  9.000E+00
       5     1     1     2   501     0  2.915783636E+00 -6.700572236E+00  3.300555763E+01  3.413691253E+01  4.750000000E+00  0.00000E+00  9.000E+00
      -5     1     1     2     0   503 -2.793439158E-01  1.272222962E+00 -6.810538733E+01  6.828325466E+01  4.750000000E+00  0.00000E+00  9.000E+00
      21     1     1     2   511   501 -4.469485951E+00 -1.384973291E+00  2.226108246E+02  2.226599957E+02  3.814697266E-06  0.00000E+00  9.000E+00
#rwgt            1           9  0.33560244460839955                3     2775581           0
</event>
<event>
      6   9999  3.45752E-01  2.45060E+00 -1.00000E+00  3.02106E-01
      21    -1     0     0   502   503  0.000000000E+00  0.000000000E+00  7.571084476E+00  7.571084476E+00  0.000000000E+00  0.00000E+00  9.000E+00
      21    -1     0     0   501   512  0.000000000E+00  0.000000000E+00 -7.072947059E+02  7.072947059E+02  0.000000000E+00  0.00000E+00  9.000E+00
      25     1     1     2     0     0  8.289535332E+00  3.732049156E+00 -5.424148362E+02  5.567064660E+02  1.250023606E+02  0.00000E+00  9.000E+00
       5     1     1     2   501     0 -2.336295171E+00 -8.801468683E-01 -7.176188269E+01  7.196223482E+01  4.750000000E+00  0.00000E+00  9.000E+00
      -5     1     1     2     0   503 -6.549399161E+00 -4.749176643E-01 -6.389004191E+01  6.440201963E+01  4.750000000E+00  0.00000E+00  9.000E+00
      21     1     1     2   502   512  5.961589997E-01 -2.376984623E+00 -2.165686059E+01  2.179506991E+01  3.371747881E-07  0.00000E+00  9.000E+00
#rwgt            1           9  0.19917885805856725                3     2781099           0
</event>
<event>
      6   9999  3.45752E-01  3.99044E+00 -1.00000E+00  2.48065E-01
      21    -1     0     0   511   503  0.000000000E+00  0.000000000E+00  8.200907366E+00  8.200907366E+00  0.000000000E+00  0.00000E+00  9.000E+00
      21    -1     0     0   501   502  0.000000000E+00  0.000000000E+00 -7.232839142E+02  7.232839142E+02  0.000000000E+00  0.00000E+00  9.000E+00
      25     1     1     2     0     0 -1.866263075E+01 -6.108796814E+00 -6.025362576E+02  6.156789438E+02  1.250000356E+02  0.00000E+00  9.000E+00
       5     1     1     2   501     0  6.997461531E+00  1.012796287E+00 -6.862841893E+01  6.915498977E+01  4.750000000E+00  0.00000E+00  9.000E+00
      -5     1     1     2     0   503  8.971417963E+00  2.151972632E+00 -3.878396679E+01  4.014817438E+01  4.750000000E+00  0.00000E+00  9.000E+00
      21     1     1     2   511   502  2.693751257E+00  2.944027894E+00 -5.134363537E+00  6.502713665E+00  8.429369702E-08  0.00000E+00  9.000E+00
#rwgt            1           9   4.5251939299905215E-003           3     2786591           0
</event>
<event>
      6   9999  3.45752E-01  2.81668E+00 -1.00000E+00  2.84275E-01
      21    -1     0     0   512   502  0.000000000E+00  0.000000000E+00  1.895549458E+01  1.895549458E+01  0.000000000E+00  0.00000E+00  9.000E+00
      21    -1     0     0   502   503  0.000000000E+00  0.000000000E+00 -7.174585472E+02  7.174585472E+02  0.000000000E+00  0.00000E+00  9.000E+00
      25     1     1     2     0     0 -3.864677749E-01  1.313295859E+00 -6.718751516E+02  6.834060953E+02  1.250031906E+02  0.00000E+00  9.000E+00
       5     1     1     2   501     0 -5.877231234E-01  4.760581278E-01 -2.245382071E+00  5.308134367E+00  4.750000000E+00  0.00000E+00  9.000E+00
      -5     1     1     2     0   503 -6.212685335E-01  5.318957214E-01 -3.570672502E+01  3.603056479E+01  4.750000000E+00  0.00000E+00  9.000E+00
      21     1     1     2   512   501  1.595459432E+00 -2.321249708E+00  1.132420604E+01  1.166924734E+01  3.371747881E-07  0.00000E+00  9.000E+00
#rwgt            1           9   1.4853462725216655E-004           3     2791270           0
</event>
<event>
      6   9999  3.45752E-01  4.46661E+01 -1.00000E+00  1.37462E-01
       1    -1     0     0   501     0  0.000000000E+00  0.000000000E+00  5.193731853E+03  5.193731853E+03  0.000000000E+00  0.00000E+00  9.000E+00
      21    -1     0     0   511   502  0.000000000E+00  0.000000000E+00 -2.131423945E+00  2.131423945E+00  0.000000000E+00  0.00000E+00  9.000E+00
      25     1     1     2     0     0 -3.119880952E+01  2.751731932E+01  2.839757035E+03  2.842811219E+03  1.250001593E+02  0.00000E+00  9.000E+00
       5     1     1     2   501     0  1.243105084E+01  3.443568917E+00  2.013492644E+02  2.018179327E+02  4.750000000E+00  0.00000E+00  9.000E+00
      -5     1     1     2     0   502 -7.034758283E+00  5.498579898E+00  2.323337754E+02  2.325537957E+02  4.750000000E+00  0.00000E+00  9.000E+00
       1     1     1     2   511     0  2.580251697E+01 -3.645946813E+01  1.918160354E+03  1.918680330E+03  3.051757812E-05  0.00000E+00  9.000E+00
#rwgt            1           2   4.8517990852421856E-004           3     2796237           0
</event>
<event>
      6   9999  3.45752E-01  3.98933E+01 -1.00000E+00  1.40253E-01
      21    -1     0     0   501   502  0.000000000E+00  0.000000000E+00  1.469635026E+03  1.469635026E+03  0.000000000E+00  0.00000E+00  9.000E+00
      21    -1     0     0   502   512  0.000000000E+00  0.000000000E+00 -9.387129969E+01  9.387129969E+01  0.000000000E+00  0.00000E+00  9.000E+00
      25     1     1     2     0     0 -1.202983331E+02  7.538661901E+01  3.279980940E+01  1.919786293E+02  1.250005414E+02  0.00000E+00  9.000E+00
       5     1     1     2   501     0 -2.023558741E+00  6.598688990E+00  8.964190567E+02  8.964582116E+02  4.750000000E+00  0.00000E+00  9.000E+00
      -5     1     1     2     0   503  9.165184758E+01 -5.647399652E+01  3.975070829E+02  4.118541209E+02  4.750000000E+00  0.00000E+00  9.000E+00
      21     1     1     2   503   512  3.067004425E+01 -2.551131148E+01  4.903777761E+01  6.321536412E+01  9.536743164E-07  0.00000E+00  9.000E+00
#rwgt            1           9  0.23174599458806874                3     2796389           0
</event>
<event>
      6   9999  3.45752E-01  3.94259E+00 -1.00000E+00  2.49157E-01
      21    -1     0     0   501   502  0.000000000E+00  0.000000000E+00  1.796656449E+02  1.796656449E+02  0.000000000E+00  0.00000E+00  9.000E+00
      21    -1     0     0   511   503  0.000000000E+00  0.000000000E+00 -3.694777540E+02  3.694777540E+02  0.000000000E+00  0.00000E+00  9.000E+00
      25     1     1     2     0     0  1.813093481E+02 -4.189725460E+01 -2.409297008E+01  2.254634225E+02  1.249992962E+02  0.00000E+00  9.000E+00
       5     1     1     2   501     0 -4.609750475E-01  2.180701477E+00  4.068944992E+01  4.102635485E+01  4.750000000E+00  0.00000E+00  9.000E+00
      -5     1     1     2     0   503 -1.845800138E+02  4.098890076E+01 -2.015400238E+02  2.763888839E+02  4.750000000E+00  0.00000E+00  9.000E+00
      21     1     1     2   511   502  3.731640764E+00 -1.272347640E+00 -4.868565162E+00  6.264737668E+00  0.000000000E+00  0.00000E+00  9.000E+00
#rwgt            1           9   1.0550483578523596E-003           3     2798162           0
</event>
<event>
      6   9999 -3.45752E-01  5.63399E+00 -1.00000E+00  2.17938E-01
      21    -1     0     0   501   502  0.000000000E+00  0.000000000E+00  2.459197314E+01  2.459197314E+01  0.000000000E+00  0.00000E+00  9.000E+00
      21    -1     0     0   512   503  0.000000000E+00  0.000000000E+00 -8.900404760E+02  8.900404760E+02  0.000000000E+00  0.00000E+00  9.000E+00
      25     1     1     2     0     0  6.133160223E+00 -7.819264768E+00 -8.405400146E+02  8.498416644E+02  1.249983277E+02  0.00000E+00  9.000E+00
       5     1     1     2   501     0 -2.711591691E+00  3.636643651E+00  1.678398731E+01  1.802339138E+01  4.750000000E+00  0.00000E+00  9.000E+00
      -5     1     1     2     0   503  7.758134010E-01  7.940782055E+00 -7.020830613E+00  1.164098229E+01  4.750000000E+00  0.00000E+00  9.000E+00
      21     1     1     2   512   502 -4.197381932E+00 -3.758160938E+00 -3.467164499E+01  3.512641107E+01  4.768371582E-07  0.00000E+00  9.000E+00
#rwgt            1           9  -11.691788202815365                3     2805627           0
</event>
<event>
      6   9999 -3.45752E-01  8.88357E+00 -1.00000E+00  1.92777E-01
      21    -1     0     0   511   502  0.000000000E+00  0.000000000E+00  4.377878364E+01  4.377878364E+01  0.000000000E+00  0.00000E+00  9.000E+00
      21    -1     0     0   502   503  0.000000000E+00  0.000000000E+00 -1.259046369E+03  1.259046369E+03  0.000000000E+00  0.00000E+00  9.000E+00
      25     1     1     2     0     0 -6.567077801E+01 -1.535961589E+02 -5.725657349E+02  6.093950631E+02  1.250055640E+02  0.00000E+00  9.000E+00
       5     1     1     2   501     0 -3.441663791E+00  2.001982373E+00  1.071783316E+01  1.238093013E+01  4.750000000E+00  0.00000E+00  9.000E+00
      -5     1     1     2     0   503  6.719162066E+01  1.602676035E+02 -6.473568971E+02  6.702939156E+02  4.750000000E+00  0.00000E+00  9.000E+00
      21     1     1     2   511   501  1.920821148E+00 -8.673426896E+00 -6.062786530E+00  1.075524377E+01  1.884864366E-07  0.00000E+00  9.000E+00
#rwgt            1           9  -1.5006039890488736E-005           3     2809909           0
</event>
<event>
      6   9999  3.45752E-01  8.37288E+00 -1.00000E+00  1.95701E-01
      21    -1     0     0   501   502  0.000000000E+00  0.000000000E+00  1.353254612E+01  1.353254612E+01  0.000000000E+00  0.00000E+00  9.000E+00
      21    -1     0     0   512   503  0.000000000E+00  0.000000000E+00 -2.802265940E+03  2.802265940E+03  0.000000000E+00  0.00000E+00  9.000E+00
      25     1     1     2     0     0  5.966809663E+00  3.869952314E+00 -1.964503055E+03  1.968486991E+03  1.249728017E+02  0.00000E+00  9.000E+00
       5     1     1     2   501     0  1.531296847E+00 -1.214588563E+00  1.087687092E+01  1.202867060E+01  4.750000000E+00  0.00000E+00  9.000E+00
      -5     1     1     2     0   503  7.522619100E-01 -4.082417990E+00 -1.608838112E+02  1.610074385E+02  4.750000000E+00  0.00000E+00  9.000E+00
      21     1     1     2   512   502 -8.250368420E+00  1.427054239E+00 -6.742233986E+02  6.742753861E+02  1.321449896E-05  0.00000E+00  9.000E+00
#rwgt            1           9   1.1634853232991106E-002           3     2813888           0
</event>
<event>
      6   9999  3.45752E-01  5.05185E+00 -1.00000E+00  2.25021E-01
      21    -1     0     0   511   502  0.000000000E+00  0.000000000E+00  6.928935815E+01  6.928935815E+01  0.000000000E+00  0.00000E+00  9.000E+00
      21    -1     0     0   502   503  0.000000000E+00  0.000000000E+00 -1.469374848E+03  1.469374848E+03  0.000000000E+00  0.00000E+00  9.000E+00
      25     1     1     2     0     0  3.075111130E+01 -2.149281251E+01 -6.871115875E+02  6.993966069E+02  1.250028326E+02  0.00000E+00  9.000E+00
       5     1     1     2   501     0  4.655517400E-01  1.960727653E+00  1.970732214E+00  5.523357386E+00  4.750000000E+00  0.00000E+00  9.000E+00
      -5     1     1     2     0   503 -3.148353847E+01  2.457688342E+01 -7.737136868E+02  7.747584579E+02  4.750000000E+00  0.00000E+00  9.000E+00
      21     1     1     2   511   501  2.668754255E-01 -5.044798564E+00  5.876905225E+01  5.898578403E+01  1.168007728E-06  0.00000E+00  9.000E+00
#rwgt            1           9   1.4735494824413313                3     2817542           0
</event>
<event>
      6   9999 -3.45752E-01  8.88145E+00 -1.00000E+00  1.92789E-01
      21    -1     0     0   502   503  0.000000000E+00  0.000000000E+00  2.333274736E+01  2.333274736E+01  0.000000000E+00  0.00000E+00  9.000E+00
       2    -1     0     0   501     0  0.000000000E+00  0.000000000E+00 -1.338000533E+03  1.338000533E+03  0.000000000E+00  0.00000E+00  9.000E+00
      25     1     1     2     0     0  3.542645487E+01 -6.421507459E+01 -2.303091547E+02  2.721123430E+02  1.249968440E+02  0.00000E+00  9.000E+00
       5     1     1     2   501     0 -2.721490840E+01  6.535855394E+01 -7.694550213E+02  7.727198614E+02  4.750000000E+00  0.00000E+00  9.000E+00
      -5     1     1     2     0   503 -1.283773289E+00  4.414052904E+00 -1.416586854E+01  1.563221892E+01  4.750000000E+00  0.00000E+00  9.000E+00
       2     1     1     2   502     0 -6.927773173E+00 -5.557532252E+00 -3.007377412E+02  3.008688571E+02  5.394796609E-06  0.00000E+00  9.000E+00
#rwgt            1           9  -4.2817341698583124E-004           3     2822993           0
</event>
<event>
      6   9999  3.45752E-01  8.46414E+00 -1.00000E+00  1.95159E-01
      21    -1     0     0   501   511  0.000000000E+00  0.000000000E+00  9.341164456E+01  9.341164456E+01  0.000000000E+00  0.00000E+00  9.000E+00
      21    -1     0     0   502   503  0.000000000E+00  0.000000000E+00 -9.351153714E+02  9.351153714E+02  0.000000000E+00  0.00000E+00  9.000E+00
      25     1     1     2     0     0 -1.904711054E+01 -1.832575943E+01 -5.980881933E+02  6.115822319E+02  1.249988539E+02  0.00000E+00  9.000E+00
       5     1     1     2   501     0  1.031769682E+00  2.143801749E+00  8.817738296E+00  1.029443749E+01  4.750000000E+00  0.00000E+00  9.000E+00
      -5     1     1     2     0   503  2.477523045E+01  1.108828333E+01 -3.287313293E+02  3.298842394E+02  4.750000000E+00  0.00000E+00  9.000E+00
      21     1     1     2   502   511 -6.759889593E+00  5.093674350E+00  7.629805750E+01  7.676610713E+01  2.132480600E-06  0.00000E+00  9.000E+00
#rwgt            1           9   6.6479703179515913E-004           3     2826560           0
</event>
<event>
      6   9999  3.45752E-01  9.40461E+00 -1.00000E+00  1.90046E-01
      21    -1     0     0   502   503  0.000000000E+00  0.000000000E+00  1.604293612E+01  1.604293612E+01  0.000000000E+00  0.00000E+00  9.000E+00
      21    -1     0     0   501   512  0.000000000E+00  0.000000000E+00 -1.027150778E+03  1.027150778E+03  0.000000000E+00  0.00000E+00  9.000E+00
      25     1     1     2     0     0  4.573329120E+01  4.356765961E+01 -3.899809469E+02  4.143665077E+02  1.249991556E+02  0.00000E+00  9.000E+00
       5     1     1     2   501     0 -5.279538757E+01 -4.505361429E+01 -4.249987940E+02  4.306549878E+02  4.750000000E+00  0.00000E+00  9.000E+00
      -5     1     1     2     0   503  1.610489404E+01 -1.097536590E+00 -8.516943018E+01  8.681570443E+01  4.750000000E+00  0.00000E+00  9.000E+00
      21     1     1     2   502   512 -9.042797671E+00  2.583491263E+00 -1.109586710E+02  1.113565143E+02  1.348699152E-06  0.00000E+00  9.000E+00
#rwgt            1           9   2.8505522594060003E-003           3     2829791           0
</event>
<event>
      6   9999 -3.45752E-01  1.44155E+01 -1.00000E+00  1.71881E-01
      21    -1     0     0   501   502  0.000000000E+00  0.000000000E+00  1.037055926E+01  1.037055926E+01  0.000000000E+00  0.00000E+00  9.000E+00
      21    -1     0     0   511   503  0.000000000E+00  0.000000000E+00 -8.813349494E+02  8.813349494E+02  0.000000000E+00  0.00000E+00  9.000E+00
      25     1     1     2     0     0  1.457916216E+00 -6.322750525E+00 -6.794085156E+02  6.908417749E+02  1.249972963E+02  0.00000E+00  9.000E+00
       5     1     1     2   501     0 -9.867097566E-01 -1.290832200E+00  2.196468294E+00  5.479673063E+00  4.750000000E+00  0.00000E+00  9.000E+00
      -5     1     1     2     0   503 -9.697585919E-01 -6.793293449E+00 -1.164783906E+02  1.167769979E+02  4.750000000E+00  0.00000E+00  9.000E+00
      21     1     1     2   511   502  4.985521327E-01  1.440687617E+01 -7.727395218E+01  7.860706279E+01  0.000000000E+00  0.00000E+00  9.000E+00
#rwgt            1           9  -2.1551774349212217E-002           3     2833320           0
</event>
<event>
      6   9999 -3.45752E-01  4.21329E+00 -1.00000E+00  2.43271E-01
      21    -1     0     0   512   502  0.000000000E+00  0.000000000E+00  6.879816136E+01  6.879816136E+01  0.000000000E+00  0.00000E+00  9.000E+00
      21    -1     0     0   502   503  0.000000000E+00  0.000000000E+00 -7.471743842E+02  7.471743842E+02  0.000000000E+00  0.00000E+00  9.000E+00
      25     1     1     2     0     0  5.928910562E+00  4.665725737E+00 -7.082158638E+02  7.192014711E+02  1.249965014E+02  0.00000E+00  9.000E+00
       5     1     1     2   501     0 -3.452401958E+00 -7.556984011E+00 -5.639449701E+00  1.110823926E+01  4.750000000E+00  0.00000E+00  9.000E+00
      -5     1     1     2     0   503  3.053459976E-01 -2.730830549E-01 -2.479119133E+01  2.524546451E+01  4.750000000E+00  0.00000E+00  9.000E+00
      21     1     1     2   512   501 -2.781854602E+00  3.164341329E+00  6.027028206E+01  6.041737060E+01  2.132480600E-06  0.00000E+00  9.000E+00
#rwgt            1           9  -4.7326692861939982E-004           3     2835261           0
</event>
<event>
      6   9999  3.45752E-01  1.20252E+01 -1.00000E+00  1.79134E-01
       2    -1     0     0   501     0  0.000000000E+00  0.000000000E+00  2.807154194E+03  2.807154194E+03  0.000000000E+00  0.00000E+00  9.000E+00
      21    -1     0     0   502   503  0.000000000E+00  0.000000000E+00 -5.835583464E+01  5.835583464E+01  0.000000000E+00  0.00000E+00  9.000E+00
      25     1     1     2     0     0  4.928854653E+01  3.446634208E+01  6.132206851E+01  1.516736489E+02  1.250088402E+02  0.00000E+00  9.000E+00
       5     1     1     2   501     0 -1.413566027E+01 -7.488976123E+00  2.285121679E+03  2.285182608E+03  4.750000000E+00  0.00000E+00  9.000E+00
      -5     1     1     2     0   503 -2.697887549E+01 -3.579735144E+01  2.586049667E+01  5.196766187E+01  4.750000000E+00  0.00000E+00  9.000E+00
       2     1     1     2   502     0 -8.174010767E+00  8.819985476E+00  3.764941156E+02  3.766861103E+02  5.394796609E-06  0.00000E+00  9.000E+00
#rwgt            1           9   5.2407909597901030E-002           3     2839458           0
</event>
<event>
      6   9999  3.45752E-01  1.45984E+01 -1.00000E+00  1.71399E-01
      21    -1     0     0   501   502  0.000000000E+00  0.000000000E+00  1.088759833E+02  1.088759833E+02  0.000000000E+00  0.00000E+00  9.000E+00
      21    -1     0     0   502   511  0.000000000E+00  0.000000000E+00 -1.053853748E+03  1.053853748E+03  0.000000000E+00  0.00000E+00  9.000E+00
      25     1     1     2     0     0 -1.799413712E+01  1.424521192E+02 -1.713871575E+02  2.561470894E+02  1.249855128E+02  0.00000E+00  9.000E+00
       5     1     1     2   501     0  4.657095351E+00 -4.830586783E-01  4.664755626E+01  4.712195760E+01  4.750000000E+00  0.00000E+00  9.000E+00
      -5     1     1     2     0   503  2.769649446E+01 -1.393385436E+02 -2.392577408E+02  2.782968820E+02  4.750000000E+00  0.00000E+00  9.000E+00
      21     1     1     2   503   511 -1.435945269E+01 -2.630516971E+00 -5.809804231E+02  5.811638027E+02  7.629394531E-06  0.00000E+00  9.000E+00
#rwgt            1           9   42.488654025013062                3     2843449           0
</event>
<event>
      6   9999  3.45752E-01  1.58625E+01 -1.00000E+00  1.68294E-01
      21    -1     0     0   512   503  0.000000000E+00  0.000000000E+00  4.351492182E+01  4.351492182E+01  0.000000000E+00  0.00000E+00  9.000E+00
      21    -1     0     0   501   502  0.000000000E+00  0.000000000E+00 -1.045915633E+03  1.045915633E+03  0.000000000E+00  0.00000E+00  9.000E+00
      25     1     1     2     0     0 -7.738319573E+01  3.588220580E+01 -3.873373498E+02  4.158467180E+02  1.249903143E+02  0.00000E+00  9.000E+00
       5     1     1     2   501     0 -8.476088489E+01 -1.537434983E+01 -2.937770949E+02  3.061834780E+02  4.750000000E+00  0.00000E+00  9.000E+00
      -5     1     1     2     0   503  1.621017305E+02 -4.645373330E+00 -2.888667832E+02  3.313082122E+02  4.750000000E+00  0.00000E+00  9.000E+00
      21     1     1     2   512   502  4.235007846E-02 -1.586248263E+01 -3.241948364E+01  3.609214690E+01  4.768371582E-07  0.00000E+00  9.000E+00
#rwgt            1           9  0.21737428722473329                3     2846513           0
</event>
<event>
      6   9999  3.45752E-01  9.60754E+00 -1.00000E+00  1.89044E-01
       2    -1     0     0   501     0  0.000000000E+00  0.000000000E+00  6.635888615E+02  6.635888615E+02  0.000000000E+00  0.00000E+00  9.000E+00
      21    -1     0     0   502   503  0.000000000E+00  0.000000000E+00 -5.890658701E+02  5.890658701E+02  0.000000000E+00  0.00000E+00  9.000E+00
      25     1     1     2     0     0 -9.039123340E+01  5.533509418E+01  9.176486390E+01  1.878193003E+02  1.249910061E+02  0.00000E+00  9.000E+00
       5     1     1     2   501     0 -3.329748113E+00  1.816258694E+00  3.716950387E+01  3.766325180E+01  4.750000000E+00  0.00000E+00  9.000E+00
      -5     1     1     2     0   503  8.582109304E+01 -6.261912321E+01 -5.355153820E+02  5.459722533E+02  4.750000000E+00  0.00000E+00  9.000E+00
       2     1     1     2   502     0  7.899888473E+00  5.467770336E+00  4.811040055E+02  4.811999261E+02  5.394796609E-06  0.00000E+00  9.000E+00
#rwgt            1           9  0.50630710867167317                3     2849039           0
</event>
<event>
      6   9999 -3.45752E-01  1.29631E+01 -1.00000E+00  1.76054E-01
      21    -1     0     0   501   511  0.000000000E+00  0.000000000E+00  7.144790911E+01  7.144790911E+01  0.000000000E+00  0.00000E+00  9.000E+00
      21    -1     0     0   502   503  0.000000000E+00  0.000000000E+00 -6.967908944E+02  6.967908944E+02  0.000000000E+00  0.00000E+00  9.000E+00
      25     1     1     2     0     0 -7.318747839E+00  4.917508339E+00 -6.182676703E+02  6.308383654E+02  1.249975407E+02  0.00000E+00  9.000E+00
       5     1     1     2   501     0 -7.226779850E-01  1.187458147E+00 -3.219210972E+01  3.257033541E+01  4.750000000E+00  0.00000E+00  9.000E+00
      -5     1     1     2     0   503 -3.625114006E+00 -4.538561026E-01 -3.897881116E+01  3.943675514E+01  4.750000000E+00  0.00000E+00  9.000E+00
      21     1     1     2   502   511  1.166653983E+01 -5.651110383E+00  6.409560592E+01  6.539334751E+01  0.000000000E+00  0.00000E+00  9.000E+00
#rwgt            1           9  -7.4305911947681142E-003           3     2854432           0
</event>
<event>
      6   9999  3.45752E-01  6.75146E+00 -1.00000E+00  2.07160E-01
      21    -1     0     0   501   502  0.000000000E+00  0.000000000E+00  2.012314535E+01  2.012314535E+01  0.000000000E+00  0.00000E+00  9.000E+00
      21    -1     0     0   502   512  0.000000000E+00  0.000000000E+00 -1.221345834E+03  1.221345834E+03  0.000000000E+00  0.00000E+00  9.000E+00
      25     1     1     2     0     0 -2.898031253E+01  4.867080024E+01 -8.768649836E+02  8.875389106E+02  1.249976523E+02  0.00000E+00  9.000E+00
       5     1     1     2   501     0 -2.007820728E+00 -1.606650227E+00  4.923259371E+00  7.308464398E+00  4.750000000E+00  0.00000E+00  9.000E+00
      -5     1     1     2     0   503  3.036125740E+01 -5.378644327E+01 -1.026714399E+02  1.199115278E+02  4.750000000E+00  0.00000E+00  9.000E+00
      21     1     1     2   503   512  6.268758558E-01  6.722293264E+00 -2.266095248E+02  2.267100768E+02  0.000000000E+00  0.00000E+00  9.000E+00
#rwgt            1           9   1.4027494340388878E-002           3     2856437           0
</event>
<event>
      6   9999  3.45752E-01  1.37114E+01 -1.00000E+00  1.73823E-01
      21    -1     0     0   501   502  0.000000000E+00  0.000000000E+00  3.967455276E+01  3.967455276E+01  0.000000000E+00  0.00000E+00  9.000E+00
      21    -1     0     0   511   503  0.000000000E+00  0.000000000E+00 -3.986811222E+03  3.986811222E+03  0.000000000E+00  0.00000E+00  9.000E+00
      25     1     1     2     0     0 -1.194173076E+02  1.299590286E+02 -6.612017226E+02  6.956737535E+02  1.249976435E+02  0.00000E+00  9.000E+00
       5     1     1     2   501     0  5.063048284E+00  3.560538032E+00  1.898395997E+01  2.052474422E+01  4.750000000E+00  0.00000E+00  9.000E+00
      -5     1     1     2     0   503  1.016033674E+02 -1.385611083E+02 -2.862577724E+03  2.867733637E+03  4.750000000E+00  0.00000E+00  9.000E+00
      21     1     1     2   511   502  1.275089191E+01  5.041541619E+00 -4.423411833E+02  4.425536406E+02  7.629394531E-06  0.00000E+00  9.000E+00
#rwgt            1           9   1.4290454737469539E-003           3     2860553           0
</event>
<event>
      6   9999  3.45752E-01  3.12834E+01 -1.00000E+00  1.46671E-01
      21    -1     0     0   501   502  0.000000000E+00  0.000000000E+00  3.003563623E+01  3.003563623E+01  0.000000000E+00  0.00000E+00  9.000E+00
      21    -1     0     0   512   503  0.000000000E+00  0.000000000E+00 -1.293871249E+03  1.293871249E+03  0.000000000E+00  0.00000E+00  9.000E+00
      25     1     1     2     0     0 -3.714161614E+01 -2.493560256E+01 -9.384031776E+02  9.477481003E+02  1.249986155E+02  0.00000E+00  9.000E+00
       5     1     1     2   501     0 -6.455227316E+00  9.188443954E-02  2.146647155E+01  2.291397615E+01  4.750000000E+00  0.00000E+00  9.000E+00
      -5     1     1     2     0   503  1.255603497E+01  2.873217926E+01 -1.167942055E+02  1.210233080E+02  4.750000000E+00  0.00000E+00  9.000E+00
      21     1     1     2   512   502  3.104080849E+01 -3.888461145E+00 -2.301047012E+02  2.322215008E+02  0.000000000E+00  0.00000E+00  9.000E+00
#rwgt            1           9   6.0761847961457319E-004           3     2864861           0
</event>
<event>
      6   9999 -3.45752E-01  7.59795E+00 -1.00000E+00  2.00704E-01
      21    -1     0     0   501   511  0.000000000E+00  0.000000000E+00  5.344425905E+01  5.344425905E+01  0.000000000E+00  0.00000E+00  9.000E+00
      21    -1     0     0   502   503  0.000000000E+00  0.000000000E+00 -6.716475583E+02  6.716475583E+02  0.000000000E+00  0.00000E+00  9.000E+00
      25     1     1     2     0     0 -6.497788146E+01  4.572185390E+01 -5.521877976E+02  5.717075318E+02  1.250021002E+02  0.00000E+00  9.000E+00
       5     1     1     2   501     0  2.411952490E+00 -2.287357591E+00  3.008292434E+01  3.063648734E+01  4.750000000E+00  0.00000E+00  9.000E+00
      -5     1     1     2     0   503  5.620791868E+01 -3.927461389E+01 -8.536510517E+01  1.095973955E+02  4.750000000E+00  0.00000E+00  9.000E+00
      21     1     1     2   502   511  6.358010286E+00 -4.159882419E+00 -1.073332084E+01  1.315040276E+01  2.064765462E-07  0.00000E+00  9.000E+00
#rwgt            1           9  -8.1816233767958470E-003           3     2866366           0
</event>
<event>
      6   9999 -3.45752E-01  3.08211E+00 -1.00000E+00  2.73880E-01
      21    -1     0     0   501   512  0.000000000E+00  0.000000000E+00  4.580606274E+01  4.580606274E+01  0.000000000E+00  0.00000E+00  9.000E+00
      21    -1     0     0   502   503  0.000000000E+00  0.000000000E+00 -1.235303543E+03  1.235303543E+03  0.000000000E+00  0.00000E+00  9.000E+00
      25     1     1     2     0     0 -5.060290943E+00  4.245722672E+00 -1.085859404E+03  1.093050210E+03  1.249979286E+02  0.00000E+00  9.000E+00
       5     1     1     2   501     0  8.124978417E+00 -6.135691844E+00  3.507499840E+01  3.683042223E+01  4.750000000E+00  0.00000E+00  9.000E+00
      -5     1     1     2     0   503 -1.161895325E-01  9.923434698E-01 -1.445483081E+02  1.446297830E+02  4.750000000E+00  0.00000E+00  9.000E+00
      21     1     1     2   502   512 -2.948497941E+00  8.976257023E-01  5.835233582E+00  6.599191084E+00  2.064765462E-07  0.00000E+00  9.000E+00
#rwgt            1           9  -1.6533964683768671E-003           3     2870476           0
</event>
<event>
      6   9999  3.45752E-01  4.52958E+00 -1.00000E+00  2.37179E-01
      21    -1     0     0   501   502  0.000000000E+00  0.000000000E+00  7.142861988E+00  7.142861988E+00  0.000000000E+00  0.00000E+00  9.000E+00
      21    -1     0     0   511   503  0.000000000E+00  0.000000000E+00 -8.446727708E+02  8.446727708E+02  0.000000000E+00  0.00000E+00  9.000E+00
      25     1     1     2     0     0  1.157251917E+01 -1.870215332E+00 -5.792971023E+02  5.927460490E+02  1.250013000E+02  0.00000E+00  9.000E+00
       5     1     1     2   501     0 -2.292613803E+00 -2.596120914E+00 -5.411120734E+01  5.442959840E+01  4.750000000E+00  0.00000E+00  9.000E+00
      -5     1     1     2     0   503 -4.877480706E+00  3.400614494E+00 -6.489266632E+01  6.533739082E+01  4.750000000E+00  0.00000E+00  9.000E+00
      21     1     1     2   511   502 -4.402424659E+00  1.065721753E+00 -1.392289329E+02  1.393025946E+02  1.907348633E-06  0.00000E+00  9.000E+00
#rwgt            1           9   2.3318149430923554                3     2879375           0
</event>
<event>
      6   9999  3.45752E-01  3.42630E+01 -1.00000E+00  1.44200E-01
      21    -1     0     0   512   503  0.000000000E+00  0.000000000E+00  6.608928831E+01  6.608928831E+01  0.000000000E+00  0.00000E+00  9.000E+00
      21    -1     0     0   501   502  0.000000000E+00  0.000000000E+00 -6.640715695E+02  6.640715695E+02  0.000000000E+00  0.00000E+00  9.000E+00
      25     1     1     2     0     0  6.385833926E+01 -5.621929138E+01 -3.203573105E+02  3.542617850E+02  1.250364333E+02  0.00000E+00  9.000E+00
       5     1     1     2   501     0 -1.779771067E+01  5.182011593E+01 -2.558860981E+02  2.617295180E+02  4.750000000E+00  0.00000E+00  9.000E+00
      -5     1     1     2     0   503 -1.209465803E+01 -1.026015821E-01 -6.082172711E+01  6.219434273E+01  4.750000000E+00  0.00000E+00  9.000E+00
      21     1     1     2   512   502 -3.396597056E+01  4.501777026E+00  3.908285452E+01  5.197521207E+01  1.261592536E-06  0.00000E+00  9.000E+00
#rwgt            1           9   2.3230810393332473E-005           3     2882852           0
</event>
<event>
      6   9999  3.45752E-01  1.84426E+02 -1.00000E+00  1.10126E-01
      21    -1     0     0   502   511  0.000000000E+00  0.000000000E+00  1.032677498E+03  1.032677498E+03  0.000000000E+00  0.00000E+00  9.000E+00
      21    -1     0     0   501   502  0.000000000E+00  0.000000000E+00 -1.569321225E+03  1.569321225E+03  0.000000000E+00  0.00000E+00  9.000E+00
      25     1     1     2     0     0  3.090227979E+01 -6.862461046E+00 -9.395413002E+02  9.483480287E+02  1.249963378E+02  0.00000E+00  9.000E+00
       5     1     1     2   501     0 -4.985147465E+01 -2.685622831E+01 -4.376016570E+02  4.412756499E+02  4.750000000E+00  0.00000E+00  9.000E+00
      -5     1     1     2     0   503  4.454050199E+01  2.163600208E+02 -1.081276062E+02  2.459871067E+02  4.750000000E+00  0.00000E+00  9.000E+00
      21     1     1     2   503   511 -2.559130712E+01 -1.826413315E+02  9.486268362E+02  9.663879373E+02  1.868812365E-05  0.00000E+00  9.000E+00
#rwgt            1           9   5.6900749197161451E-003           3     2883938           0
</event>
<event>
      6   9999  3.45752E-01  1.97783E+02 -1.00000E+00  1.09062E-01
      21    -1     0     0   501   502  0.000000000E+00  0.000000000E+00  1.961907288E+03  1.961907288E+03  0.000000000E+00  0.00000E+00  9.000E+00
      21    -1     0     0   512   503  0.000000000E+00  0.000000000E+00 -8.558378842E+01  8.558378842E+01  0.000000000E+00  0.00000E+00  9.000E+00
      25     1     1     2     0     0 -2.301671542E+01  2.485974405E+02  5.670842050E+02  6.320934636E+02  1.250087777E+02  0.00000E+00  9.000E+00
       5     1     1     2   501     0 -9.602474586E+01  1.513834169E+01  8.684608458E+02  8.738974335E+02  4.750000000E+00  0.00000E+00  9.000E+00
      -5     1     1     2     0   503  7.855683525E+00 -1.001633611E+02  2.372996248E+02  2.577364644E+02  4.750000000E+00  0.00000E+00  9.000E+00
      21     1     1     2   512   502  1.111857778E+02 -1.635724211E+02  2.034788242E+02  2.837637151E+02  3.814697266E-06  0.00000E+00  9.000E+00
#rwgt            1           9   2.0926208742782348E-002           3     2884620           0
</event>
<event>
      6   9999  3.45752E-01  1.07118E+01 -1.00000E+00  1.84102E-01
      21    -1     0     0   501   511  0.000000000E+00  0.000000000E+00  2.017792823E+01  2.017792823E+01  0.000000000E+00  0.00000E+00  9.000E+00
      21    -1     0     0   502   503  0.000000000E+00  0.000000000E+00 -9.375708281E+02  9.375708281E+02  0.000000000E+00  0.00000E+00  9.000E+00
      25     1     1     2     0     0  1.405710278E+01  8.752588124E+00 -6.485870069E+02  6.607273468E+02  1.249852446E+02  0.00000E+00  9.000E+00
       5     1     1     2   501     0  1.806421015E+00 -6.814765875E+00  8.467042964E+00  1.199822934E+01  4.750000000E+00  0.00000E+00  9.000E+00
      -5     1     1     2     0   503 -1.143112641E+01 -1.168951458E+01 -2.729363969E+02  2.734669169E+02  4.750000000E+00  0.00000E+00  9.000E+00
      21     1     1     2   502   511 -4.432397387E+00  9.751692334E+00 -4.336539087E+00  1.155626329E+01  3.862822472E-07  0.00000E+00  9.000E+00
#rwgt            1           9   1.6801579585870178E-003           3     2885009           0
</event>
<event>
      6   9999  3.45752E-01  2.64530E+01 -1.00000E+00  1.51462E-01
      21    -1     0     0   501   512  0.000000000E+00  0.000000000E+00  1.272710147E+01  1.272710147E+01  0.000000000E+00  0.00000E+00  9.000E+00
      21    -1     0     0   502   503  0.000000000E+00  0.000000000E+00 -8.918737269E+02  8.918737269E+02  0.000000000E+00  0.00000E+00  9.000E+00
      25     1     1     2     0     0  1.988322929E+01  1.140570732E+01 -6.935279651E+02  7.050755627E+02  1.250003116E+02  0.00000E+00  9.000E+00
       5     1     1     2   501     0  5.277582668E+00 -3.062503857E-01  2.115456384E+00  7.415141525E+00  4.750000000E+00  0.00000E+00  9.000E+00
      -5     1     1     2     0   503  5.168887556E-01 -4.742233047E+00 -1.057488987E+02  1.059629559E+02  4.750000000E+00  0.00000E+00  9.000E+00
      21     1     1     2   502   512 -2.567770071E+01 -6.357223889E+00 -8.198521807E+01  8.614716821E+01  9.536743164E-07  0.00000E+00  9.000E+00
#rwgt            1           9   5.4106422717880532E-003           3     2887482           0
</event>
<event>
      6   9999  3.45752E-01  2.05189E+01 -1.00000E+00  1.59366E-01
      21    -1     0     0   501   502  0.000000000E+00  0.000000000E+00  1.475356083E+01  1.475356083E+01  0.000000000E+00  0.00000E+00  9.000E+00
      21    -1     0     0   502   511  0.000000000E+00  0.000000000E+00 -1.736615726E+03  1.736615726E+03  0.000000000E+00  0.00000E+00  9.000E+00
      25     1     1     2     0     0 -1.767746386E+01  8.327102274E+00 -1.428941588E+03  1.434532176E+03  1.250066728E+02  0.00000E+00  9.000E+00
       5     1     1     2   501     0 -2.651984662E+00  2.051358627E+00  1.030638255E+01  1.183322087E+01  4.750000000E+00  0.00000E+00  9.000E+00
      -5     1     1     2     0   503  6.140350132E+00  4.443589561E+00 -1.670934778E+02  1.673327291E+02  4.750000000E+00  0.00000E+00  9.000E+00
      21     1     1     2   503   511  1.418909839E+01 -1.482205046E+01 -1.361334821E+02  1.376711613E+02  2.697398305E-06  0.00000E+00  9.000E+00
#rwgt            1           9   1.9837943578365491E-002           3     2888506           0
</event>
<event>
      6   9999  3.45752E-01  2.55544E+01 -1.00000E+00  1.52490E-01
      21    -1     0     0   501   502  0.000000000E+00  0.000000000E+00  7.829333163E+02  7.829333163E+02  0.000000000E+00  0.00000E+00  9.000E+00
      21    -1     0     0   502   512  0.000000000E+00  0.000000000E+00 -2.580547355E+01  2.580547355E+01  0.000000000E+00  0.00000E+00  9.000E+00
      25     1     1     2     0     0  1.262158843E+01  2.402795003E+01  7.247219499E+02  7.359255314E+02  1.250113443E+02  0.00000E+00  9.000E+00
       5     1     1     2   501     0 -6.904280032E+00 -5.009485907E+00  7.569258768E+00  1.235395524E+01  4.750000000E+00  0.00000E+00  9.000E+00
      -5     1     1     2     0   503 -1.307417987E+01  5.454076347E+00  3.078713849E+01  3.422121454E+01  4.750000000E+00  0.00000E+00  9.000E+00
      21     1     1     2   503   512  7.356871472E+00 -2.447254047E+01 -5.950504412E+00  2.623808869E+01  8.085167388E-07  0.00000E+00  9.000E+00
#rwgt            1           9   93.621287813510236                3     2890699           0
</event>
<event>
      6   9999  3.45752E-01  4.60422E+00 -1.00000E+00  2.35848E-01
      21    -1     0     0   511   502  0.000000000E+00  0.000000000E+00  4.782586402E+01  4.782586402E+01  0.000000000E+00  0.00000E+00  9.000E+00
      21    -1     0     0   502   503  0.000000000E+00  0.000000000E+00 -1.030548962E+03  1.030548962E+03  0.000000000E+00  0.00000E+00  9.000E+00
      25     1     1     2     0     0  8.874515027E+00 -2.913726357E+01 -7.360322139E+02  7.471928214E+02  1.250038214E+02  0.00000E+00  9.000E+00
       5     1     1     2   501     0 -4.176354030E+00  2.911529608E+00  8.019666074E+00  1.062056880E+01  4.750000000E+00  0.00000E+00  9.000E+00
      -5     1     1     2     0   503 -9.249999893E+00  2.691823807E+01 -2.867472388E+02  2.881955855E+02  4.750000000E+00  0.00000E+00  9.000E+00
      21     1     1     2   511   501  4.551838895E+00 -6.925041074E-01  3.203668900E+01  3.236584993E+01  1.581489940E-06  0.00000E+00  9.000E+00
#rwgt            1           9   2.3835642024074368E-002           3     2891483           0
</event>
<event>
      6   9999  3.45752E-01  3.11171E+01 -1.00000E+00  1.46818E-01
      21    -1     0     0   512   502  0.000000000E+00  0.000000000E+00  5.939925611E+01  5.939925611E+01  0.000000000E+00  0.00000E+00  9.000E+00
      21    -1     0     0   502   503  0.000000000E+00  0.000000000E+00 -1.305124624E+03  1.305124624E+03  0.000000000E+00  0.00000E+00  9.000E+00
      25     1     1     2     0     0  7.068766829E+01 -1.521847559E+02 -8.604544182E+02  8.855303127E+02  1.250007304E+02  0.00000E+00  9.000E+00
       5     1     1     2   501     0  4.295363367E+00 -3.386632748E+00  2.121328680E+01  2.241618756E+01  4.750000000E+00  0.00000E+00  9.000E+00
      -5     1     1     2     0   503 -4.522668497E+01  1.646725767E+02 -3.761229091E+02  4.131023067E+02  4.750000000E+00  0.00000E+00  9.000E+00
      21     1     1     2   512   501 -2.975634669E+01 -9.101188055E+00 -3.036132791E+01  4.347507360E+01  6.743495762E-07  0.00000E+00  9.000E+00
#rwgt            1           9   2.1083103635367498E-004           3     2896683           0
</event>
<event>
      6   9999 -3.45752E-01  3.07710E+01 -1.00000E+00  1.47129E-01
      21    -1     0     0   502   511  0.000000000E+00  0.000000000E+00  2.298198966E+01  2.298198966E+01  0.000000000E+00  0.00000E+00  9.000E+00
      21    -1     0     0   501   502  0.000000000E+00  0.000000000E+00 -3.004774862E+03  3.004774862E+03  0.000000000E+00  0.00000E+00  9.000E+00
      25     1     1     2     0     0  2.092947219E+02  1.570088624E+01 -1.750294097E+03  1.767259189E+03  1.249992702E+02  0.00000E+00  9.000E+00
       5     1     1     2   501     0  8.902069893E+00  1.734906471E+01 -3.888775377E+02  3.893950934E+02  4.750000000E+00  0.00000E+00  9.000E+00
      -5     1     1     2     0   503 -1.875777718E+02 -2.999511523E+01 -7.354274377E+02  7.595796246E+02  4.750000000E+00  0.00000E+00  9.000E+00
      21     1     1     2   503   511 -3.061901999E+01 -3.054835730E+00 -1.071938004E+02  1.115229450E+02  1.348699152E-06  0.00000E+00  9.000E+00
#rwgt            1           9  -4.3796284993821596E-004           3     2898475           0
</event>
<event>
      6   9999  3.45752E-01  1.01531E+01 -1.00000E+00  1.86501E-01
      21    -1     0     0   501   502  0.000000000E+00  0.000000000E+00  7.711592656E+00  7.711592656E+00  0.000000000E+00  0.00000E+00  9.000E+00
       2    -1     0     0   502     0  0.000000000E+00  0.000000000E+00 -2.717952018E+03  2.717952018E+03  0.000000000E+00  0.00000E+00  9.000E+00
      25     1     1     2     0     0  7.561475930E+00  2.512049187E+00 -8.222398539E+02  8.317231006E+02  1.249858091E+02  0.00000E+00  9.000E+00
       5     1     1     2   501     0  1.641961700E+00 -1.527923700E+00  3.443317800E-01  5.264185923E+00  4.750000000E+00  0.00000E+00  9.000E+00
      -5     1     1     2     0   503  9.098637670E-01 -8.593703694E-02 -3.838718820E+01  3.869074767E+01  4.750000000E+00  0.00000E+00  9.000E+00
       2     1     1     2   503     0 -1.011330140E+01 -8.981884502E-01 -1.849957715E+03  1.849985577E+03  0.000000000E+00  0.00000E+00  9.000E+00
#rwgt            1           9   4.8257243174088297E-004           3     2899921           0
</event>
<event>
      6   9999  3.45752E-01  1.57614E+01 -1.00000E+00  1.68529E-01
      21    -1     0     0   501   502  0.000000000E+00  0.000000000E+00  1.808697639E+01  1.808697639E+01  0.000000000E+00  0.00000E+00  9.000E+00
       2    -1     0     0   502     0  0.000000000E+00  0.000000000E+00 -2.851875335E+03  2.851875335E+03  0.000000000E+00  0.00000E+00  9.000E+00
      25     1     1     2     0     0  3.511983217E+00 -5.553343224E+00 -3.864155967E+02  4.061816050E+02  1.249932365E+02  0.00000E+00  9.000E+00
       5     1     1     2   501     0  1.200791543E+00  5.895108195E-01  3.352964463E+00  5.966095375E+00  4.750000000E+00  0.00000E+00  9.000E+00
      -5     1     1     2     0   503  1.066271137E+01  8.430167284E+00 -1.120995419E+01  1.824792336E+01  4.750000000E+00  0.00000E+00  9.000E+00
       2     1     1     2   503     0 -1.537548613E+01 -3.466334880E+00 -2.439515773E+03  2.439566688E+03  3.051757812E-05  0.00000E+00  9.000E+00
#rwgt            1           9   7.8861310835164110E-004           3     2901929           0
</event>
<event>
      6   9999  3.45752E-01  2.44203E+01 -1.00000E+00  1.53861E-01
      21    -1     0     0   511   502  0.000000000E+00  0.000000000E+00  3.640958208E+02  3.640958208E+02  0.000000000E+00  0.00000E+00  9.000E+00
      21    -1     0     0   502   503  0.000000000E+00  0.000000000E+00 -1.342928398E+03  1.342928398E+03  0.000000000E+00  0.00000E+00  9.000E+00
      25     1     1     2     0     0 -5.510746123E+00  6.207030503E+00 -1.289649144E+03  1.295719428E+03  1.250001094E+02  0.00000E+00  9.000E+00
       5     1     1     2   501     0  1.966933515E+01  2.952321520E+00  4.207842017E+01  4.678413077E+01  4.750000000E+00  0.00000E+00  9.000E+00
      -5     1     1     2     0   503  9.473272740E+00 -3.004160401E+00 -4.677977876E+01  4.805911024E+01  4.750000000E+00  0.00000E+00  9.000E+00
      21     1     1     2   511   501 -2.363186177E+01 -6.155191623E+00  3.155179251E+02  3.164615495E+02  3.814697266E-06  0.00000E+00  9.000E+00
#rwgt            1           9   5.9567377920386197E-003           3     2903504           0
</event>
<event>
      6   9999  3.45752E-01  1.54573E+01 -1.00000E+00  1.69249E-01
      21    -1     0     0   512   502  0.000000000E+00  0.000000000E+00  1.969165442E+01  1.969165442E+01  0.000000000E+00  0.00000E+00  9.000E+00
      21    -1     0     0   502   503  0.000000000E+00  0.000000000E+00 -8.458033612E+02  8.458033612E+02  0.000000000E+00  0.00000E+00  9.000E+00
      25     1     1     2     0     0  4.277114833E+01 -4.150415013E+01 -4.642126092E+02  4.844269465E+02  1.249966174E+02  0.00000E+00  9.000E+00
       5     1     1     2   501     0  1.068301690E+01  4.282111247E+00 -5.927892362E+01  6.057240801E+01  4.750000000E+00  0.00000E+00  9.000E+00
      -5     1     1     2     0   503 -5.407460303E+01  5.266686823E+01 -2.922590965E+02  3.018870710E+02  4.750000000E+00  0.00000E+00  9.000E+00
      21     1     1     2   512   501  6.204378033E-01 -1.544482935E+01 -1.036107749E+01  1.860859004E+01  4.460403188E-07  0.00000E+00  9.000E+00
#rwgt            1           9   4.5128761067091382E-004           3     2905792           0
</event>
<event>
      6   9999  3.45752E-01  1.31177E+01 -1.00000E+00  1.75578E-01
      21    -1     0     0   501   511  0.000000000E+00  0.000000000E+00  4.053874722E+02  4.053874722E+02  0.000000000E+00  0.00000E+00  9.000E+00
      21    -1     0     0   502   503  0.000000000E+00  0.000000000E+00 -8.349165790E+02  8.349165790E+02  0.000000000E+00  0.00000E+00  9.000E+00
      25     1     1     2     0     0  4.541151443E+00 -9.533286725E+00 -7.963702041E+02  8.061886394E+02  1.249924589E+02  0.00000E+00  9.000E+00
       5     1     1     2   501     0  1.443585854E+00 -4.204949194E-01 -3.810709689E+00  6.272540508E+00  4.750000000E+00  0.00000E+00  9.000E+00
      -5     1     1     2     0   503  6.726493384E+00  6.713791638E+00 -2.749687826E+01  2.947815336E+01  4.750000000E+00  0.00000E+00  9.000E+00
      21     1     1     2   502   511 -1.271123068E+01  3.239990006E+00  3.981486852E+02  3.983647179E+02  1.078959322E-05  0.00000E+00  9.000E+00
#rwgt            1           9   1.1393948337401027E-003           3     2907829           0
</event>
<event>
      6   9999  3.45752E-01  1.28916E+01 -1.00000E+00  1.76277E-01
      21    -1     0     0   501   502  0.000000000E+00  0.000000000E+00  1.130164575E+02  1.130164575E+02  0.000000000E+00  0.00000E+00  9.000E+00
      21    -1     0     0   512   503  0.000000000E+00  0.000000000E+00 -1.228519075E+03  1.228519075E+03  0.000000000E+00  0.00000E+00  9.000E+00
      25     1     1     2     0     0  8.789714195E+00  1.088207286E+01 -2.174082210E+02  2.511727020E+02  1.250028523E+02  0.00000E+00  9.000E+00
       5     1     1     2   501     0 -4.163315354E+00  7.143652788E-01  9.560060672E+01  9.581170084E+01  4.750000000E+00  0.00000E+00  9.000E+00
      -5     1     1     2     0   503 -4.282144588E-01  5.923983422E-01 -1.458777667E+01  1.535903745E+01  4.750000000E+00  0.00000E+00  9.000E+00
      21     1     1     2   512   502 -4.198184382E+00 -1.218883648E+01 -9.791072267E+02  9.791920924E+02  1.078959322E-05  0.00000E+00  9.000E+00
#rwgt            1           9   2.9764485578838260E-003           3     2909446           0
</event>
<event>
      6   9999  3.45752E-01  9.50149E+00 -1.00000E+00  1.89564E-01
      21    -1     0     0   502   503  0.000000000E+00  0.000000000E+00  3.356166006E+01  3.356166006E+01  0.000000000E+00  0.00000E+00  9.000E+00
      21    -1     0     0   501   511  0.000000000E+00  0.000000000E+00 -1.298454000E+03  1.298454000E+03  0.000000000E+00  0.00000E+00  9.000E+00
      25     1     1     2     0     0  1.345067257E+02  7.440467650E+01 -7.737905727E+02  7.987528684E+02  1.250047168E+02  0.00000E+00  9.000E+00
       5     1     1     2   501     0 -4.619736480E+01 -2.985913901E+01 -2.062864060E+02  2.135472044E+02  4.750000000E+00  0.00000E+00  9.000E+00
      -5     1     1     2     0   503 -9.489959581E+01 -5.139002785E+01 -1.515379629E+02  1.860999327E+02  4.750000000E+00  0.00000E+00  9.000E+00
      21     1     1     2   502   511  6.590234893E+00  6.844490361E+00 -1.332773983E+02  1.336156545E+02  2.697398305E-06  0.00000E+00  9.000E+00
#rwgt            1           9   8.6819161965120226E-002           3     2912019           0
</event>
<event>
      6   9999  3.45752E-01  1.55806E+01 -1.00000E+00  1.68954E-01
      21    -1     0     0   501   512  0.000000000E+00  0.000000000E+00  9.579734877E+00  9.579734877E+00  0.000000000E+00  0.00000E+00  9.000E+00
      21    -1     0     0   502   503  0.000000000E+00  0.000000000E+00 -7.504898139E+02  7.504898139E+02  0.000000000E+00  0.00000E+00  9.000E+00
      25     1     1     2     0     0  1.994286357E+00  2.690895836E+00 -6.237656380E+02  6.361753742E+02  1.249972698E+02  0.00000E+00  9.000E+00
       5     1     1     2   501     0  1.639355716E+00  4.782128485E-01 -4.093904446E+00  6.499132889E+00  4.750000000E+00  0.00000E+00  9.000E+00
      -5     1     1     2     0   503  1.189972465E+01 -1.957262136E+00 -7.755372215E+01  7.862936246E+01  4.750000000E+00  0.00000E+00  9.000E+00
      21     1     1     2   502   512 -1.553336672E+01 -1.211846548E+00 -3.549681446E+01  3.876567928E+01  6.743495762E-07  0.00000E+00  9.000E+00
#rwgt            1           9   8.3740997796206222E-005           3     2916011           0
</event>
<event>
      6   9999  3.45752E-01  1.12543E+01 -1.00000E+00  1.81945E-01
      21    -1     0     0   501   502  0.000000000E+00  0.000000000E+00  2.654626975E+03  2.654626975E+03  0.000000000E+00  0.00000E+00  9.000E+00
      21    -1     0     0   511   503  0.000000000E+00  0.000000000E+00 -1.455999630E+01  1.455999630E+01  0.000000000E+00  0.00000E+00  9.000E+00
      25     1     1     2     0     0  2.248173848E-01  1.052242314E+01  4.225731875E+02  4.407989755E+02  1.249994641E+02  0.00000E+00  9.000E+00
       5     1     1     2   501     0  1.678081821E+00  6.481856042E-01  2.187500801E+03  2.187506698E+03  4.750000000E+00  0.00000E+00  9.000E+00
      -5     1     1     2     0   503  3.806917674E+00 -1.472324059E+00  2.890370211E+01  2.957442909E+01  4.750000000E+00  0.00000E+00  9.000E+00
      21     1     1     2   511   502 -5.709816880E+00 -9.698284683E+00  1.089287984E+00  1.130686884E+01  1.162386089E-06  0.00000E+00  9.000E+00
#rwgt            1           9   1.1424250347095086E-003           3     2917355           0
</event>
<event>
      6   9999  3.45752E-01  3.97047E+00 -1.00000E+00  2.48518E-01
      21    -1     0     0   502   503  0.000000000E+00  0.000000000E+00  3.828096821E+01  3.828096821E+01  0.000000000E+00  0.00000E+00  9.000E+00
      21    -1     0     0   501   512  0.000000000E+00  0.000000000E+00 -1.398251860E+02  1.398251860E+02  0.000000000E+00  0.00000E+00  9.000E+00
      25     1     1     2     0     0 -4.613773746E+00  2.067556644E-01 -8.871048565E+01  1.533298483E+02  1.249766477E+02  0.00000E+00  9.000E+00
       5     1     1     2   501     0  6.707414923E-02 -1.553140496E-01  3.360152859E-01  4.764874360E+00  4.750000000E+00  0.00000E+00  9.000E+00
      -5     1     1     2     0   503  2.018717267E+00 -3.113134302E+00  2.340570432E-01  6.031924012E+00  4.750000000E+00  0.00000E+00  9.000E+00
      21     1     1     2   502   512  2.527982330E+00  3.061692688E+00 -1.340380443E+01  1.397950750E+01  0.000000000E+00  0.00000E+00  9.000E+00
#rwgt            1           9   3.3090466257540814E-004           3     2920258           0
</event>
<event>
      6   9999  3.45752E-01  2.43134E+01 -1.00000E+00  1.53995E-01
      21    -1     0     0   511   502  0.000000000E+00  0.000000000E+00  3.372137399E+02  3.372137399E+02  0.000000000E+00  0.00000E+00  9.000E+00
      21    -1     0     0   502   503  0.000000000E+00  0.000000000E+00 -5.369233976E+01  5.369233976E+01  0.000000000E+00  0.00000E+00  9.000E+00
      25     1     1     2     0     0  3.239706157E+00  9.025665761E+00  3.318961347E+01  1.296917927E+02  1.250058091E+02  0.00000E+00  9.000E+00
       5     1     1     2   501     0  5.883282854E+00  9.572202942E+00  2.117539840E+02  2.121050502E+02  4.750000000E+00  0.00000E+00  9.000E+00
      -5     1     1     2     0   503  2.390287485E+00  2.816772605E+00  6.489753555E+00  8.850258944E+00  4.750000000E+00  0.00000E+00  9.000E+00
      21     1     1     2   511   501 -1.151327650E+01 -2.141464131E+01  3.208804908E+01  4.025897778E+01  4.768371582E-07  0.00000E+00  9.000E+00
#rwgt            1           9  0.39850038347875477                3     2924661           0
</event>
<event>
      6   9999  3.45752E-01  2.40987E+00 -1.00000E+00  3.04415E-01
       2    -1     0     0   501     0  0.000000000E+00  0.000000000E+00  2.243241878E+01  2.243241878E+01  0.000000000E+00  0.00000E+00  9.000E+00
      21    -1     0     0   502   503  0.000000000E+00  0.000000000E+00 -7.603807147E+02  7.603807147E+02  0.000000000E+00  0.00000E+00  9.000E+00
      25     1     1     2     0     0  6.237964578E+00  3.328662658E-01 -6.803020345E+02  6.917164700E+02  1.249871743E+02  0.00000E+00  9.000E+00
       5     1     1     2   501     0 -3.178519202E-01  1.241881668E+00  1.289683865E+00  5.086165981E+00  4.750000000E+00  0.00000E+00  9.000E+00
      -5     1     1     2     0   503 -3.546037890E+00 -1.988572992E+00 -7.222984152E+01  7.249994009E+01  4.750000000E+00  0.00000E+00  9.000E+00
       2     1     1     2   502     0 -2.374074767E+00  4.138250584E-01  1.329389628E+01  1.351055737E+01  6.951036328E-07  0.00000E+00  9.000E+00
#rwgt            1           9   4.9740881677255700E-004           3     2926223           0
</event>
<event>
      6   9999  3.45752E-01  1.17905E+01 -1.00000E+00  1.79961E-01
      21    -1     0     0   502   511  0.000000000E+00  0.000000000E+00  4.542325107E+01  4.542325107E+01  0.000000000E+00  0.00000E+00  9.000E+00
      21    -1     0     0   501   502  0.000000000E+00  0.000000000E+00 -8.678219782E+02  8.678219782E+02  0.000000000E+00  0.00000E+00  9.000E+00
      25     1     1     2     0     0 -6.672079068E+00 -4.459957245E+01 -5.778014639E+02  5.929308789E+02  1.252152425E+02  0.00000E+00  9.000E+00
       5     1     1     2   501     0  2.770513682E+01  2.599348637E+01 -1.875857135E+02  1.914528620E+02  4.750000000E+00  0.00000E+00  9.000E+00
      -5     1     1     2     0   503 -3.276666049E+01  1.744931203E+01 -8.804199625E+01  9.566654658E+01  4.750000000E+00  0.00000E+00  9.000E+00
      21     1     1     2   503   511  1.173360274E+01  1.156774049E+00  3.103044647E+01  3.319494190E+01  5.840038640E-07  0.00000E+00  9.000E+00
#rwgt            1           9  0.27062939645366851                3     2933112           0
</event>
<event>
      6   9999  3.45752E-01  1.65941E+01 -1.00000E+00  1.66656E-01
      21    -1     0     0   501   512  0.000000000E+00  0.000000000E+00  1.100408817E+01  1.100408817E+01  0.000000000E+00  0.00000E+00  9.000E+00
      21    -1     0     0   502   503  0.000000000E+00  0.000000000E+00 -7.496044727E+02  7.496044727E+02  0.000000000E+00  0.00000E+00  9.000E+00
      25     1     1     2     0     0  1.091050736E+01 -1.315063076E+01 -5.923505032E+02  6.056364116E+02  1.249974649E+02  0.00000E+00  9.000E+00
       5     1     1     2   501     0 -5.324705882E-01  7.346482933E-01 -9.455519494E+00  1.062038521E+01  4.750000000E+00  0.00000E+00  9.000E+00
      -5     1     1     2     0   503 -1.447389065E+01 -3.664722447E+00 -1.189753743E+02  1.200026078E+02  4.750000000E+00  0.00000E+00  9.000E+00
      21     1     1     2   502   512  4.095853876E+00  1.608070491E+01 -1.781898759E+01  2.434915621E+01  0.000000000E+00  0.00000E+00  9.000E+00
#rwgt            1           9   7.2029357620622403E-005           3     2935401           0
</event>
<event>
      6   9999  3.45752E-01  6.41037E+00 -1.00000E+00  2.10133E-01
      -3    -1     0     0     0   502  0.000000000E+00  0.000000000E+00  1.019307769E+02  1.019307769E+02  0.000000000E+00  0.00000E+00  9.000E+00
      21    -1     0     0   502   503  0.000000000E+00  0.000000000E+00 -2.770340573E+02  2.770340573E+02  0.000000000E+00  0.00000E+00  9.000E+00
      25     1     1     2     0     0 -8.189769740E-01  3.358612526E+00 -2.507067640E+02  2.801627373E+02  1.250013073E+02  0.00000E+00  9.000E+00
       5     1     1     2   501     0 -5.054529756E+00  2.420308553E-02  2.057664968E+01  2.171427800E+01  4.750000000E+00  0.00000E+00  9.000E+00
      -5     1     1     2     0   503 -4.320850425E-01 -2.228549761E+00 -1.023622673E+01  1.151068934E+01  4.750000000E+00  0.00000E+00  9.000E+00
      -3     1     1     2     0   501  6.305591773E+00 -1.154265851E+00  6.526306077E+01  6.557712954E+01  1.348699152E-06  0.00000E+00  9.000E+00
#rwgt            1           9   1.6483862035045996E-003           3     2936904           0
</event>
<event>
      6   9999 -3.45752E-01  1.14178E+01 -1.00000E+00  1.81325E-01
      21    -1     0     0   501   502  0.000000000E+00  0.000000000E+00  3.290812981E+01  3.290812981E+01  0.000000000E+00  0.00000E+00  9.000E+00
       2    -1     0     0   502     0  0.000000000E+00  0.000000000E+00 -2.164230118E+03  2.164230118E+03  0.000000000E+00  0.00000E+00  9.000E+00
      25     1     1     2     0     0  9.344614048E-02 -6.798636447E+00 -2.110052552E+02  2.453434827E+02  1.249959064E+02  0.00000E+00  9.000E+00
       5     1     1     2   501     0  1.163908692E-01 -3.046389075E+00  1.448648810E+01  1.554718208E+01  4.750000000E+00  0.00000E+00  9.000E+00
      -5     1     1     2     0   503 -3.768474161E+00 -1.004093503E+00 -1.268486583E+01  1.409531562E+01  4.750000000E+00  0.00000E+00  9.000E+00
       2     1     1     2   503     0  3.558637152E+00  1.084911903E+01 -1.922118355E+03  1.922152267E+03  3.051757812E-05  0.00000E+00  9.000E+00
#rwgt            1           9  -91.512791160218057                3     2941352           0
</event>
<event>
      6   9999  3.45752E-01  6.59814E+00 -1.00000E+00  2.08466E-01
      21    -1     0     0   501   511  0.000000000E+00  0.000000000E+00  1.808175238E+01  1.808175238E+01  0.000000000E+00  0.00000E+00  9.000E+00
      21    -1     0     0   502   503  0.000000000E+00  0.000000000E+00 -5.515469070E+02  5.515469070E+02  0.000000000E+00  0.00000E+00  9.000E+00
      25     1     1     2     0     0  1.265707956E+00 -6.809024098E+00 -5.133036385E+02  5.283493524E+02  1.249977919E+02  0.00000E+00  9.000E+00
       5     1     1     2   501     0 -5.864660979E-01  3.518256228E+00  6.786127923E+00  9.018652979E+00  4.750000000E+00  0.00000E+00  9.000E+00
      -5     1     1     2     0   503 -4.429146307E+00  8.719728708E+00 -1.397383924E+01  1.770541411E+01  4.750000000E+00  0.00000E+00  9.000E+00
      21     1     1     2   502   511  3.749904448E+00 -5.428960838E+00 -1.297380473E+01  1.455523990E+01  1.685873940E-07  0.00000E+00  9.000E+00
#rwgt            1           9   1.7807751120930463E-003           3     2943740           0
</event>
<event>
      6   9999  3.45752E-01  2.40445E+01 -1.00000E+00  1.54336E-01
      21    -1     0     0   501   502  0.000000000E+00  0.000000000E+00  1.083161518E+02  1.083161518E+02  0.000000000E+00  0.00000E+00  9.000E+00
      21    -1     0     0   502   512  0.000000000E+00  0.000000000E+00 -5.436282440E+02  5.436282440E+02  0.000000000E+00  0.00000E+00  9.000E+00
      25     1     1     2     0     0  1.260556403E+01  6.675471270E+00 -8.227178760E+01  1.503356619E+02  1.250148073E+02  0.00000E+00  9.000E+00
       5     1     1     2   501     0 -1.611123459E+00 -5.589099791E+00  5.076880627E+01  5.132122315E+01  4.750000000E+00  0.00000E+00  9.000E+00
      -5     1     1     2     0   503 -3.977501265E+00 -2.408417861E+01  1.614250422E+01  2.964812166E+01  4.750000000E+00  0.00000E+00  9.000E+00
      21     1     1     2   503   512 -7.016939306E+00  2.299780714E+01 -4.199516152E+02  4.206393891E+02  5.394796609E-06  0.00000E+00  9.000E+00
#rwgt            1           9   2.5821166750857973E-003           3     2946968           0
</event>
<event>
      6   9999  3.45752E-01  6.00506E+00 -1.00000E+00  2.14007E-01
       1    -1     0     0   501     0  0.000000000E+00  0.000000000E+00  6.276655615E+02  6.276655615E+02  0.000000000E+00  0.00000E+00  9.000E+00
      21    -1     0     0   502   503  0.000000000E+00  0.000000000E+00 -1.601086146E+03  1.601086146E+03  0.000000000E+00  0.00000E+00  9.000E+00
      25     1     1     2     0     0 -8.577866274E+00  7.177335650E-01 -1.579205566E+03  1.584168066E+03  1.249965954E+02  0.00000E+00  9.000E+00
       5     1     1     2   501     0 -6.463831447E-01 -7.348566814E-01 -2.843186133E+00  5.621746428E+00  4.750000000E+00  0.00000E+00  9.000E+00
      -5     1     1     2     0   503  3.220804321E+00  1.562022783E-01 -1.460858271E+01  1.569621510E+01  4.750000000E+00  0.00000E+00  9.000E+00
       1     1     1     2   502     0  6.003445098E+00 -1.390791619E-01  6.232367501E+02  6.232656796E+02  1.525878906E-05  0.00000E+00  9.000E+00
#rwgt            1           9   6.3148670691241034E-004           3     2948332           0
</event>
<event>
      6   9999  3.45752E-01  1.94468E+01 -1.00000E+00  1.61146E-01
      21    -1     0     0   501   511  0.000000000E+00  0.000000000E+00  3.949603740E+01  3.949603740E+01  0.000000000E+00  0.00000E+00  9.000E+00
      21    -1     0     0   502   503  0.000000000E+00  0.000000000E+00 -9.110135391E+02  9.110135391E+02  0.000000000E+00  0.00000E+00  9.000E+00
      25     1     1     2     0     0  2.508873996E+01  2.507607626E+01 -3.233456887E+02  3.484793245E+02  1.250086027E+02  0.00000E+00  9.000E+00
       5     1     1     2   501     0  1.357789757E+01 -3.224073008E+01 -1.906251391E+02  1.938667845E+02  4.750000000E+00  0.00000E+00  9.000E+00
      -5     1     1     2     0   503 -4.007764095E+01 -1.223084615E+01 -3.777645283E+02  3.801110525E+02  4.750000000E+00  0.00000E+00  9.000E+00
      21     1     1     2   502   511  1.411003417E+00  1.939549998E+01  2.021785438E+01  2.805241498E+01  6.743495762E-07  0.00000E+00  9.000E+00
#rwgt            1           9   1.3546929647688907E-002           3     2951722           0
</event>
<event>
      6   9999  3.45752E-01  2.77460E+01 -1.00000E+00  1.50066E-01
      21    -1     0     0   512   502  0.000000000E+00  0.000000000E+00  1.496614377E+02  1.496614377E+02  0.000000000E+00  0.00000E+00  9.000E+00
      21    -1     0     0   502   503  0.000000000E+00  0.000000000E+00 -1.176739872E+03  1.176739872E+03  0.000000000E+00  0.00000E+00  9.000E+00
      25     1     1     2     0     0 -1.446158896E+01 -6.289503634E+01 -1.115275036E+03  1.124112440E+03  1.250017961E+02  0.00000E+00  9.000E+00
       5     1     1     2   501     0 -1.309762610E+00  7.350756079E+00  1.286503139E+02  1.289543131E+02  4.750000000E+00  0.00000E+00  9.000E+00
      -5     1     1     2     0   503  3.040999916E+00  3.089109559E+01 -1.206798070E+01  3.364084015E+01  4.750000000E+00  0.00000E+00  9.000E+00
      21     1     1     2   512   501  1.273035165E+01  2.465318466E+01 -2.838573172E+01  3.969371654E+01  4.768371582E-07  0.00000E+00  9.000E+00
#rwgt            1           9   2.3724794088146031E-003           3     2953407           0
</event>
<event>
      6   9999  3.45752E-01  8.71725E+01 -1.00000E+00  1.23024E-01
       1    -1     0     0   501     0  0.000000000E+00  0.000000000E+00  1.085358267E+02  1.085358267E+02  0.000000000E+00  0.00000E+00  9.000E+00
      21    -1     0     0   502   503  0.000000000E+00  0.000000000E+00 -1.142585817E+03  1.142585817E+03  0.000000000E+00  0.00000E+00  9.000E+00
      25     1     1     2     0     0 -6.508057222E+00 -1.380725546E+02 -5.526841394E+02  5.832632171E+02  1.250193478E+02  0.00000E+00  9.000E+00
       5     1     1     2   501     0 -2.671957054E+01  9.744019459E+01 -2.791883355E+02  2.969464871E+02  4.750000000E+00  0.00000E+00  9.000E+00
      -5     1     1     2     0   503 -5.270436502E+01  2.597850499E+01 -2.598077077E+02  2.664117870E+02  4.750000000E+00  0.00000E+00  9.000E+00
       1     1     1     2   502     0  8.593199278E+01  1.465385500E+01  5.763019213E+01  1.045001526E+02  3.568322551E-06  0.00000E+00  9.000E+00
#rwgt            1           9   1.0125696004002231E-002           3     2957154           0
</event>
<event>
      6   9999  3.45752E-01  3.16480E+01 -1.00000E+00  1.46351E-01
      21    -1     0     0   501   502  0.000000000E+00  0.000000000E+00  4.793600867E+01  4.793600867E+01  0.000000000E+00  0.00000E+00  9.000E+00
      21    -1     0     0   511   503  0.000000000E+00  0.000000000E+00 -1.773287110E+03  1.773287110E+03  0.000000000E+00  0.00000E+00  9.000E+00
      25     1     1     2     0     0  8.254509545E+01  2.687762007E+01 -2.861807896E+02  3.241282030E+02  1.249941937E+02  0.00000E+00  9.000E+00
       5     1     1     2   501     0  1.072876085E+01  8.693525926E+00  2.529808042E+01  2.921025634E+01  4.750000000E+00  0.00000E+00  9.000E+00
      -5     1     1     2     0   503 -6.449344155E+01 -2.240737775E+01 -1.003005613E+03  1.005337912E+03  4.750000000E+00  0.00000E+00  9.000E+00
      21     1     1     2   511   502 -2.878041475E+01 -1.316376825E+01 -4.614627796E+02  4.625467479E+02  7.629394531E-06  0.00000E+00  9.000E+00
#rwgt            1           9   3.6915769169458589E-003           3     2957903           0
</event>
<event>
      6   9999  3.45752E-01  8.17921E+00 -1.00000E+00  1.96883E-01
      21    -1     0     0   501   502  0.000000000E+00  0.000000000E+00  4.399052716E+01  4.399052716E+01  0.000000000E+00  0.00000E+00  9.000E+00
      21    -1     0     0   512   503  0.000000000E+00  0.000000000E+00 -1.300747601E+03  1.300747601E+03  0.000000000E+00  0.00000E+00  9.000E+00
      25     1     1     2     0     0  1.571207717E+02 -3.200044472E+01 -6.139116807E+02  6.467020878E+02  1.250002931E+02  0.00000E+00  9.000E+00
       5     1     1     2   501     0 -1.437104028E+00  2.600338056E+00  1.633926148E+01  1.727312918E+01  4.750000000E+00  0.00000E+00  9.000E+00
      -5     1     1     2     0   503 -1.538176884E+02  2.143658605E+01 -5.574188693E+02  5.786689613E+02  4.750000000E+00  0.00000E+00  9.000E+00
      21     1     1     2   512   502 -1.865979256E+00  7.963520612E+00 -1.017657855E+02  1.020939501E+02  2.336015456E-06  0.00000E+00  9.000E+00
#rwgt            1           9   1.9323984543152367E-004           3     2959471           0
</event>
<event>
      6   9999  3.45752E-01  1.34316E+01 -1.00000E+00  1.74636E-01
      21    -1     0     0   501   502  0.000000000E+00  0.000000000E+00  4.063714529E+01  4.063714529E+01  0.000000000E+00  0.00000E+00  9.000E+00
      21    -1     0     0   502   511  0.000000000E+00  0.000000000E+00 -1.452256059E+03  1.452256059E+03  0.000000000E+00  0.00000E+00  9.000E+00
      25     1     1     2     0     0 -1.548144509E+01  9.633133254E+00 -1.097342736E+03  1.104589470E+03  1.249973799E+02  0.00000E+00  9.000E+00
       5     1     1     2   501     0  5.214395260E+00 -2.326950408E+00  3.623420367E+01  3.698762809E+01  4.750000000E+00  0.00000E+00  9.000E+00
      -5     1     1     2     0   503  7.089306864E+00  5.744077004E+00 -1.396160778E+02  1.399945155E+02  4.750000000E+00  0.00000E+00  9.000E+00
      21     1     1     2   503   511  3.177742970E+00 -1.305025985E+01 -2.108943031E+02  2.113215901E+02  3.814697266E-06  0.00000E+00  9.000E+00
#rwgt            1           9   2.4712816427679904E-006           3     2963847           0
</event>
<event>
      6   9999  3.45752E-01  1.07109E+01 -1.00000E+00  1.84106E-01
      21    -1     0     0   502   503  0.000000000E+00  0.000000000E+00  2.815255037E+02  2.815255037E+02  0.000000000E+00  0.00000E+00  9.000E+00
      21    -1     0     0   512   502  0.000000000E+00  0.000000000E+00 -4.480757995E+01  4.480757995E+01  0.000000000E+00  0.00000E+00  9.000E+00
      25     1     1     2     0     0  3.868366177E+00 -1.105886432E+01  2.478061802E+02  2.777898818E+02  1.249882103E+02  0.00000E+00  9.000E+00
       5     1     1     2   501     0  4.817733031E+00  1.816831396E+00  5.001412558E+00  8.607441865E+00  4.750000000E+00  0.00000E+00  9.000E+00
      -5     1     1     2     0   503  1.962803434E+00  1.039280756E+01  7.650740711E+00  1.389098196E+01  4.750000000E+00  0.00000E+00  9.000E+00
      21     1     1     2   512   501 -1.064890264E+01 -1.150774635E+00 -2.374040974E+01  2.604477806E+01  5.840038640E-07  0.00000E+00  9.000E+00
#rwgt            1           9   39.456410434870740                3     2967089           0
</event>
<event>
      6   9999  3.45752E-01  5.80244E+00 -1.00000E+00  2.16103E-01
      21    -1     0     0   511   502  0.000000000E+00  0.000000000E+00  2.843887521E+01  2.843887521E+01  0.000000000E+00  0.00000E+00  9.000E+00
      21    -1     0     0   502   503  0.000000000E+00  0.000000000E+00 -1.077786147E+03  1.077786147E+03  0.000000000E+00  0.00000E+00  9.000E+00
      25     1     1     2     0     0 -9.366740481E-01  1.288675046E+01 -9.642633481E+02  9.724173705E+02  1.249991685E+02  0.00000E+00  9.000E+00
       5     1     1     2   501     0 -2.209657029E+00 -5.373741780E+00  2.260243713E+01  2.381580040E+01  4.750000000E+00  0.00000E+00  9.000E+00
      -5     1     1     2     0   503  4.705023815E+00 -1.923840047E+00 -1.005673392E+02  1.008076913E+02  4.750000000E+00  0.00000E+00  9.000E+00
      21     1     1     2   511   501 -1.558692737E+00 -5.589168628E+00 -7.119021945E+00  9.184160411E+00  8.429369702E-08  0.00000E+00  9.000E+00
#rwgt            1           9   9.7063399479596245E-004           3     2968782           0
</event>
<event>
      6   9999 -3.45752E-01  9.10445E+00 -1.00000E+00  1.91590E-01
      21    -1     0     0   502   503  0.000000000E+00  0.000000000E+00  3.236771494E+01  3.236771494E+01  0.000000000E+00  0.00000E+00  9.000E+00
      21    -1     0     0   512   502  0.000000000E+00  0.000000000E+00 -3.249945405E+02  3.249945405E+02  0.000000000E+00  0.00000E+00  9.000E+00
      25     1     1     2     0     0 -2.833243566E+00 -1.860264737E+01 -1.537091136E+02  1.990133467E+02  1.250029391E+02  0.00000E+00  9.000E+00
       5     1     1     2   501     0  2.935124704E+01 -1.064199373E+01 -6.459664289E+01  7.190296590E+01  4.750000000E+00  0.00000E+00  9.000E+00
      -5     1     1     2     0   503 -1.968369516E+01  2.322939786E+01 -3.760765430E+01  4.862047862E+01  4.750000000E+00  0.00000E+00  9.000E+00
      21     1     1     2   512   501 -6.834308314E+00  6.015243246E+00 -3.671341475E+01  3.782546423E+01  0.000000000E+00  0.00000E+00  9.000E+00
#rwgt            1           9  -923.79867229317108                3     2973448           0
</event>
<event>
      6   9999  3.45752E-01  1.56237E+01 -1.00000E+00  1.68852E-01
      21    -1     0     0   511   502  0.000000000E+00  0.000000000E+00  1.909863109E+02  1.909863109E+02  0.000000000E+00  0.00000E+00  9.000E+00
      21    -1     0     0   502   503  0.000000000E+00  0.000000000E+00 -9.150270254E+02  9.150270254E+02  0.000000000E+00  0.00000E+00  9.000E+00
      25     1     1     2     0     0  3.196794628E+00 -5.717121178E+00 -6.832250152E+02  6.945959616E+02  1.249968937E+02  0.00000E+00  9.000E+00
       5     1     1     2   501     0  2.090926528E+00 -3.980235881E+00  1.581497143E+00  6.728884352E+00  4.750000000E+00  0.00000E+00  9.000E+00
      -5     1     1     2     0   503  5.193437990E+00 -1.889074475E+00 -2.231463715E+02  2.232653265E+02  4.750000000E+00  0.00000E+00  9.000E+00
      21     1     1     2   511   501 -1.048115915E+01  1.158643153E+01  1.807491751E+02  1.814231639E+02  1.907348633E-06  0.00000E+00  9.000E+00
#rwgt            1           9   2.8331209495126544E-003           3     2976275           0
</event>
</LesHouchesEvents>
 #Random number generator exit values:            3       2977852             0
